<?xml version="1.0" encoding="UTF-8"?>

<!-- generated on sáb 01 set 2018 15:23:50 -03 by SUMO gui Version 0.32.0
<?xml version="1.0" encoding="UTF-8"?>

<configuration xmlns:xsi="http://www.w3.org/2001/XMLSchema-instance" xsi:noNamespaceSchemaLocation="http://sumo.dlr.de/xsd/sumoConfiguration.xsd">

    <input>
        <net-file value="/home/wagner/TCC/Bologna_small-0.29.0/acosta/acosta_buslanes.net.xml"/>
        <route-files value="/home/wagner/TCC/Bologna_small-0.29.0/acosta/acosta.rou.xml,/home/wagner/TCC/Bologna_small-0.29.0/acosta/acosta_busses.rou.xml"/>
        <additional-files value="/home/wagner/TCC/Bologna_small-0.29.0/acosta/acosta_vtypes.add.xml,/home/wagner/TCC/Bologna_small-0.29.0/acosta/acosta_detectors.add.xml,/home/wagner/TCC/Bologna_small-0.29.0/acosta/acosta_bus_stops.add.xml,/home/wagner/TCC/Bologna_small-0.29.0/acosta/acosta_tls.add.xml"/>
    </input>

    <output>
        <tripinfo-output value="/home/wagner/TCC/Bologna_small-0.29.0/acosta/tripinfos.xml"/>
    </output>

    <report>
        <log value="/home/wagner/TCC/Bologna_small-0.29.0/acosta/sumo_log.txt"/>
        <no-step-log value="true"/>
    </report>

    <gui_only>
        <gui-settings-file value="/home/wagner/TCC/Bologna_small-0.29.0/acosta/settings.gui.xml"/>
    </gui_only>

</configuration>
-->

<tripinfos xmlns:xsi="http://www.w3.org/2001/XMLSchema-instance" xsi:noNamespaceSchemaLocation="http://sumo.dlr.de/xsd/tripinfo_file.xsd">
    <tripinfo id="Pepoli_8_16" depart="27.00" departLane="210_0" departPos="0.00" departSpeed="0.00" departDelay="0.00" arrival="83.00" arrivalLane="134b_0" arrivalPos="158.70" arrivalSpeed="13.75" duration="56.00" routeLength="693.78" waitSteps="0" timeLoss="5.37" rerouteNo="0" devices="tripinfo_Pepoli_8_16" vType="passenger2b" speedFactor="1.00" vaporized=""/>
    <tripinfo id="Silvani_11_0" depart="0.00" departLane="203[0]_0" departPos="0.00" departSpeed="0.00" departDelay="0.00" arrival="87.00" arrivalLane="114_0" arrivalPos="693.37" arrivalSpeed="13.16" duration="87.00" routeLength="1114.20" waitSteps="0" timeLoss="6.25" rerouteNo="0" devices="tripinfo_Silvani_11_0" vType="passenger2a" speedFactor="1.00" vaporized=""/>
    <tripinfo id="Silvani_11_1" depart="2.00" departLane="203[0]_0" departPos="0.00" departSpeed="0.00" departDelay="0.00" arrival="90.00" arrivalLane="114_0" arrivalPos="693.37" arrivalSpeed="13.49" duration="88.00" routeLength="1114.20" waitSteps="0" timeLoss="7.67" rerouteNo="0" devices="tripinfo_Silvani_11_1" vType="passenger2b" speedFactor="1.00" vaporized=""/>
    <tripinfo id="Pepoli_8_21" depart="37.00" departLane="210_0" departPos="0.00" departSpeed="0.00" departDelay="1.00" arrival="93.00" arrivalLane="134b_0" arrivalPos="158.70" arrivalSpeed="12.68" duration="56.00" routeLength="693.78" waitSteps="0" timeLoss="5.88" rerouteNo="0" devices="tripinfo_Pepoli_8_21" vType="passenger2b" speedFactor="1.00" vaporized=""/>
    <tripinfo id="Pepoli_8_23" depart="40.00" departLane="210_0" departPos="0.00" departSpeed="0.00" departDelay="1.00" arrival="96.00" arrivalLane="134b_0" arrivalPos="158.70" arrivalSpeed="12.77" duration="56.00" routeLength="693.78" waitSteps="0" timeLoss="5.28" rerouteNo="0" devices="tripinfo_Pepoli_8_23" vType="passenger2a" speedFactor="1.00" vaporized=""/>
    <tripinfo id="Pepoli_8_25" depart="42.00" departLane="210_0" departPos="0.00" departSpeed="0.00" departDelay="0.00" arrival="99.00" arrivalLane="134b_0" arrivalPos="158.70" arrivalSpeed="13.87" duration="57.00" routeLength="693.78" waitSteps="0" timeLoss="6.13" rerouteNo="0" devices="tripinfo_Pepoli_8_25" vType="passenger4" speedFactor="1.00" vaporized=""/>
    <tripinfo id="Togliatti_2_8" depart="11.00" departLane="85_0" departPos="0.00" departSpeed="0.00" departDelay="0.00" arrival="104.00" arrivalLane="77[1][1]_0" arrivalPos="464.92" arrivalSpeed="13.37" duration="93.00" routeLength="1149.26" waitSteps="0" timeLoss="9.60" rerouteNo="0" devices="tripinfo_Togliatti_2_8" vType="passenger1" speedFactor="1.00" vaporized=""/>
    <tripinfo id="Costa_1_2" depart="9.00" departLane="78[0]_0" departPos="0.00" departSpeed="0.00" departDelay="4.00" arrival="112.00" arrivalLane="86_0" arrivalPos="323.60" arrivalSpeed="13.26" duration="103.00" routeLength="1187.89" waitSteps="2" timeLoss="17.23" rerouteNo="0" devices="tripinfo_Costa_1_2" vType="passenger1" speedFactor="1.00" vaporized=""/>
    <tripinfo id="Costa_1_4" depart="15.00" departLane="78[0]_0" departPos="0.00" departSpeed="0.00" departDelay="5.00" arrival="112.00" arrivalLane="86_2" arrivalPos="323.60" arrivalSpeed="13.68" duration="97.00" routeLength="1187.89" waitSteps="0" timeLoss="11.02" rerouteNo="0" devices="tripinfo_Costa_1_4" vType="passenger3" speedFactor="1.00" vaporized=""/>
    <tripinfo id="Costa_12_0" depart="0.00" departLane="78[0]_0" departPos="0.00" departSpeed="0.00" departDelay="0.00" arrival="114.00" arrivalLane="136_0" arrivalPos="188.65" arrivalSpeed="13.36" duration="114.00" routeLength="1418.11" waitSteps="0" timeLoss="11.19" rerouteNo="0" devices="tripinfo_Costa_12_0" vType="passenger3" speedFactor="1.00" vaporized=""/>
    <tripinfo id="Costa_12_1" depart="6.00" departLane="78[0]_0" departPos="0.00" departSpeed="0.00" departDelay="4.00" arrival="121.00" arrivalLane="136_0" arrivalPos="188.65" arrivalSpeed="12.63" duration="115.00" routeLength="1418.11" waitSteps="0" timeLoss="12.42" rerouteNo="0" devices="tripinfo_Costa_12_1" vType="passenger1" speedFactor="1.00" vaporized=""/>
    <tripinfo id="Audinot_7_0" depart="0.00" departLane="131_0" departPos="0.00" departSpeed="0.00" departDelay="0.00" arrival="124.00" arrivalLane="209_0" arrivalPos="395.74" arrivalSpeed="13.27" duration="124.00" routeLength="875.18" waitSteps="45" timeLoss="60.16" rerouteNo="0" devices="tripinfo_Audinot_7_0" vType="passenger4" speedFactor="1.00" vaporized=""/>
    <tripinfo id="Costa_3_21" depart="55.00" departLane="78[0]_0" departPos="0.00" departSpeed="0.00" departDelay="1.00" arrival="126.00" arrivalLane="14_0" arrivalPos="90.27" arrivalSpeed="12.60" duration="71.00" routeLength="854.03" waitSteps="1" timeLoss="9.01" rerouteNo="0" devices="tripinfo_Costa_3_21" vType="passenger3" speedFactor="1.00" vaporized=""/>
    <tripinfo id="Costa_12_3" depart="12.00" departLane="78[0]_0" departPos="0.00" departSpeed="0.00" departDelay="5.00" arrival="129.00" arrivalLane="136_0" arrivalPos="188.65" arrivalSpeed="13.27" duration="117.00" routeLength="1418.11" waitSteps="0" timeLoss="14.15" rerouteNo="0" devices="tripinfo_Costa_12_3" vType="passenger1" speedFactor="1.00" vaporized=""/>
    <tripinfo id="Costa_12_7" depart="20.00" departLane="78[0]_0" departPos="0.00" departSpeed="0.00" departDelay="2.00" arrival="137.00" arrivalLane="136_0" arrivalPos="188.65" arrivalSpeed="13.79" duration="117.00" routeLength="1418.11" waitSteps="0" timeLoss="14.52" rerouteNo="0" devices="tripinfo_Costa_12_7" vType="passenger1" speedFactor="1.00" vaporized=""/>
    <tripinfo id="Costa_12_9" depart="26.00" departLane="78[0]_0" departPos="0.00" departSpeed="0.00" departDelay="3.00" arrival="141.00" arrivalLane="136_0" arrivalPos="188.65" arrivalSpeed="12.86" duration="115.00" routeLength="1418.11" waitSteps="0" timeLoss="12.85" rerouteNo="0" devices="tripinfo_Costa_12_9" vType="passenger4" speedFactor="1.00" vaporized=""/>
    <tripinfo id="Costa_12_11" depart="29.00" departLane="78[0]_0" departPos="0.00" departSpeed="0.00" departDelay="1.00" arrival="145.00" arrivalLane="136_0" arrivalPos="188.65" arrivalSpeed="12.60" duration="116.00" routeLength="1418.11" waitSteps="0" timeLoss="13.35" rerouteNo="0" devices="tripinfo_Costa_12_11" vType="passenger1" speedFactor="1.00" vaporized=""/>
    <tripinfo id="Turati_3_2" depart="69.00" departLane="195_0" departPos="0.00" departSpeed="0.00" departDelay="0.00" arrival="149.00" arrivalLane="14_0" arrivalPos="90.27" arrivalSpeed="13.48" duration="80.00" routeLength="953.01" waitSteps="0" timeLoss="10.68" rerouteNo="0" devices="tripinfo_Turati_3_2" vType="ignoring5" speedFactor="1.00" vaporized=""/>
    <tripinfo id="Pepoli_8_28" depart="48.00" departLane="210_0" departPos="0.00" departSpeed="0.00" departDelay="0.00" arrival="153.00" arrivalLane="134b_0" arrivalPos="158.70" arrivalSpeed="13.12" duration="105.00" routeLength="693.78" waitSteps="43" timeLoss="54.43" rerouteNo="0" devices="tripinfo_Pepoli_8_28" vType="passenger2b" speedFactor="1.00" vaporized=""/>
    <tripinfo id="Pepoli_3_0" depart="0.00" departLane="210_2" departPos="0.00" departSpeed="0.00" departDelay="0.00" arrival="153.00" arrivalLane="14_0" arrivalPos="90.27" arrivalSpeed="12.88" duration="153.00" routeLength="1950.08" waitSteps="0" timeLoss="12.60" rerouteNo="0" devices="tripinfo_Pepoli_3_0" vType="ignoring1" speedFactor="1.00" vaporized=""/>
    <tripinfo id="Togliatti_12_15" depart="21.00" departLane="85_2" departPos="0.00" departSpeed="0.00" departDelay="0.00" arrival="154.00" arrivalLane="136_0" arrivalPos="188.65" arrivalSpeed="12.64" duration="133.00" routeLength="912.56" waitSteps="51" timeLoss="67.06" rerouteNo="0" devices="tripinfo_Togliatti_12_15" vType="passenger2b" speedFactor="1.00" vaporized=""/>
    <tripinfo id="Togliatti_12_24" depart="34.00" departLane="85_2" departPos="0.00" departSpeed="0.00" departDelay="0.00" arrival="157.00" arrivalLane="136_0" arrivalPos="188.65" arrivalSpeed="13.88" duration="123.00" routeLength="912.56" waitSteps="41" timeLoss="56.74" rerouteNo="0" devices="tripinfo_Togliatti_12_24" vType="passenger3" speedFactor="1.00" vaporized=""/>
    <tripinfo id="Pepoli_3_2" depart="3.00" departLane="210_2" departPos="0.00" departSpeed="0.00" departDelay="0.00" arrival="158.00" arrivalLane="14_0" arrivalPos="90.27" arrivalSpeed="13.39" duration="155.00" routeLength="1950.08" waitSteps="0" timeLoss="13.72" rerouteNo="0" devices="tripinfo_Pepoli_3_2" vType="ignoring1" speedFactor="1.00" vaporized=""/>
    <tripinfo id="Silvani_11_8" depart="18.00" departLane="203[0]_0" departPos="0.00" departSpeed="0.00" departDelay="0.00" arrival="160.00" arrivalLane="114_0" arrivalPos="693.37" arrivalSpeed="13.51" duration="142.00" routeLength="1114.20" waitSteps="48" timeLoss="61.58" rerouteNo="0" devices="tripinfo_Silvani_11_8" vType="passenger1" speedFactor="1.00" vaporized=""/>
    <tripinfo id="Togliatti_12_48" depart="68.00" departLane="85_2" departPos="0.00" departSpeed="0.00" departDelay="0.00" arrival="161.00" arrivalLane="136_0" arrivalPos="188.65" arrivalSpeed="13.76" duration="93.00" routeLength="912.56" waitSteps="8" timeLoss="26.36" rerouteNo="0" devices="tripinfo_Togliatti_12_48" vType="passenger2a" speedFactor="1.00" vaporized=""/>
    <tripinfo id="bus_81_0" depart="4.00" departLane="55_0" departPos="0.00" departSpeed="0.00" departDelay="4.00" arrival="162.00" arrivalLane="114_0" arrivalPos="693.37" arrivalSpeed="12.78" duration="158.00" routeLength="1058.61" waitSteps="12" timeLoss="39.40" rerouteNo="0" devices="tripinfo_bus_81_0" vType="bus" speedFactor="1.00" vaporized=""/>
    <tripinfo id="Togliatti_12_59" depart="84.00" departLane="85_2" departPos="0.00" departSpeed="0.00" departDelay="0.00" arrival="162.00" arrivalLane="136_0" arrivalPos="188.65" arrivalSpeed="13.07" duration="78.00" routeLength="912.56" waitSteps="0" timeLoss="11.95" rerouteNo="0" devices="tripinfo_Togliatti_12_59" vType="passenger2b" speedFactor="1.00" vaporized=""/>
    <tripinfo id="Silvani_11_9" depart="21.00" departLane="203[0]_0" departPos="0.00" departSpeed="0.00" departDelay="0.00" arrival="163.00" arrivalLane="114_1" arrivalPos="693.37" arrivalSpeed="12.60" duration="142.00" routeLength="1114.20" waitSteps="46" timeLoss="60.99" rerouteNo="0" devices="tripinfo_Silvani_11_9" vType="passenger3" speedFactor="1.00" vaporized=""/>
    <tripinfo id="Pepoli_10_4" depart="6.00" departLane="210_0" departPos="0.00" departSpeed="0.00" departDelay="0.00" arrival="164.00" arrivalLane="204[1][1]_0" arrivalPos="436.47" arrivalSpeed="13.01" duration="158.00" routeLength="1470.53" waitSteps="38" timeLoss="52.13" rerouteNo="0" devices="tripinfo_Pepoli_10_4" vType="passenger4" speedFactor="1.00" vaporized=""/>
    <tripinfo id="Pepoli_8_44" depart="75.00" departLane="210_0" departPos="0.00" departSpeed="0.00" departDelay="0.00" arrival="164.00" arrivalLane="134b_0" arrivalPos="158.70" arrivalSpeed="12.84" duration="89.00" routeLength="693.78" waitSteps="24" timeLoss="38.83" rerouteNo="0" devices="tripinfo_Pepoli_8_44" vType="passenger3" speedFactor="1.00" vaporized=""/>
    <tripinfo id="Silvani_11_12" depart="28.00" departLane="203[0]_0" departPos="0.00" departSpeed="0.00" departDelay="0.00" arrival="165.00" arrivalLane="114_1" arrivalPos="693.37" arrivalSpeed="13.65" duration="137.00" routeLength="1114.20" waitSteps="41" timeLoss="55.99" rerouteNo="0" devices="tripinfo_Silvani_11_12" vType="passenger2b" speedFactor="1.00" vaporized=""/>
    <tripinfo id="XXI_Aprile_2_12" depart="42.00" departLane="13_0" departPos="0.00" departSpeed="0.00" departDelay="0.00" arrival="166.00" arrivalLane="77[1][1]_0" arrivalPos="464.92" arrivalSpeed="12.82" duration="124.00" routeLength="980.44" waitSteps="35" timeLoss="52.55" rerouteNo="0" devices="tripinfo_XXI_Aprile_2_12" vType="passenger3" speedFactor="1.00" vaporized=""/>
    <tripinfo id="Pepoli_8_48" depart="82.00" departLane="210_0" departPos="0.00" departSpeed="0.00" departDelay="0.00" arrival="166.00" arrivalLane="134b_0" arrivalPos="158.70" arrivalSpeed="13.72" duration="84.00" routeLength="693.78" waitSteps="19" timeLoss="33.53" rerouteNo="0" devices="tripinfo_Pepoli_8_48" vType="passenger3" speedFactor="1.00" vaporized=""/>
    <tripinfo id="Pepoli_10_10" depart="17.00" departLane="210_0" departPos="0.00" departSpeed="0.00" departDelay="0.00" arrival="167.00" arrivalLane="204[1][1]_0" arrivalPos="436.47" arrivalSpeed="13.18" duration="150.00" routeLength="1470.53" waitSteps="27" timeLoss="43.27" rerouteNo="0" devices="tripinfo_Pepoli_10_10" vType="passenger1" speedFactor="1.00" vaporized=""/>
    <tripinfo id="Silvani_11_14" depart="33.00" departLane="203[0]_0" departPos="0.00" departSpeed="0.00" departDelay="0.00" arrival="167.00" arrivalLane="114_0" arrivalPos="693.37" arrivalSpeed="12.88" duration="134.00" routeLength="1114.20" waitSteps="39" timeLoss="53.61" rerouteNo="0" devices="tripinfo_Silvani_11_14" vType="passenger1" speedFactor="1.00" vaporized=""/>
    <tripinfo id="Pepoli_10_11" depart="20.00" departLane="210_0" departPos="0.00" departSpeed="0.00" departDelay="2.00" arrival="168.00" arrivalLane="204[1][1]_0" arrivalPos="436.47" arrivalSpeed="13.37" duration="148.00" routeLength="1470.53" waitSteps="25" timeLoss="41.90" rerouteNo="0" devices="tripinfo_Pepoli_10_11" vType="passenger1" speedFactor="1.00" vaporized=""/>
    <tripinfo id="Pepoli_8_51" depart="88.00" departLane="210_0" departPos="0.00" departSpeed="0.00" departDelay="1.00" arrival="168.00" arrivalLane="134b_0" arrivalPos="158.70" arrivalSpeed="13.04" duration="80.00" routeLength="693.78" waitSteps="13" timeLoss="29.48" rerouteNo="0" devices="tripinfo_Pepoli_8_51" vType="passenger3" speedFactor="1.00" vaporized=""/>
    <tripinfo id="Vittorio_Veneto_1_4" depart="18.00" departLane="224[0]_0" departPos="0.00" departSpeed="0.00" departDelay="0.00" arrival="169.00" arrivalLane="86_0" arrivalPos="323.60" arrivalSpeed="13.29" duration="151.00" routeLength="1147.97" waitSteps="55" timeLoss="68.19" rerouteNo="0" devices="tripinfo_Vittorio_Veneto_1_4" vType="passenger1" speedFactor="1.00" vaporized=""/>
    <tripinfo id="Pepoli_10_18" depart="30.00" departLane="210_0" departPos="0.00" departSpeed="0.00" departDelay="0.00" arrival="170.00" arrivalLane="204[1][1]_0" arrivalPos="436.47" arrivalSpeed="13.00" duration="140.00" routeLength="1470.53" waitSteps="19" timeLoss="33.96" rerouteNo="0" devices="tripinfo_Pepoli_10_18" vType="passenger1" speedFactor="1.00" vaporized=""/>
    <tripinfo id="Silvani_11_16" depart="37.00" departLane="203[0]_0" departPos="0.00" departSpeed="0.00" departDelay="0.00" arrival="170.00" arrivalLane="114_1" arrivalPos="693.37" arrivalSpeed="13.26" duration="133.00" routeLength="1114.20" waitSteps="37" timeLoss="51.91" rerouteNo="0" devices="tripinfo_Silvani_11_16" vType="passenger2a" speedFactor="1.00" vaporized=""/>
    <tripinfo id="bus_91_0" depart="8.00" departLane="55_0" departPos="0.00" departSpeed="0.00" departDelay="8.00" arrival="170.00" arrivalLane="114_0" arrivalPos="693.37" arrivalSpeed="13.81" duration="162.00" routeLength="1058.61" waitSteps="19" timeLoss="42.80" rerouteNo="0" devices="tripinfo_bus_91_0" vType="bus" speedFactor="1.00" vaporized=""/>
    <tripinfo id="Pepoli_10_19" depart="32.00" departLane="210_1" departPos="0.00" departSpeed="0.00" departDelay="0.00" arrival="172.00" arrivalLane="204[1][1]_0" arrivalPos="436.47" arrivalSpeed="13.10" duration="140.00" routeLength="1470.53" waitSteps="17" timeLoss="33.75" rerouteNo="0" devices="tripinfo_Pepoli_10_19" vType="passenger2b" speedFactor="1.00" vaporized=""/>
    <tripinfo id="Silvani_11_23" depart="54.00" departLane="203[0]_0" departPos="0.00" departSpeed="0.00" departDelay="0.00" arrival="172.00" arrivalLane="114_1" arrivalPos="693.37" arrivalSpeed="13.70" duration="118.00" routeLength="1114.20" waitSteps="23" timeLoss="37.55" rerouteNo="0" devices="tripinfo_Silvani_11_23" vType="passenger4" speedFactor="1.00" vaporized=""/>
    <tripinfo id="bus_13_0" depart="0.00" departLane="55_0" departPos="0.00" departSpeed="0.00" departDelay="0.00" arrival="172.00" arrivalLane="114_0" arrivalPos="693.37" arrivalSpeed="13.59" duration="172.00" routeLength="1058.61" waitSteps="22" timeLoss="53.48" rerouteNo="0" devices="tripinfo_bus_13_0" vType="bus" speedFactor="1.00" vaporized=""/>
    <tripinfo id="Pepoli_8_62" depart="106.00" departLane="210_0" departPos="0.00" departSpeed="0.00" departDelay="0.00" arrival="173.00" arrivalLane="134b_0" arrivalPos="158.70" arrivalSpeed="13.66" duration="67.00" routeLength="693.78" waitSteps="0" timeLoss="16.70" rerouteNo="0" devices="tripinfo_Pepoli_8_62" vType="passenger1" speedFactor="1.00" vaporized=""/>
    <tripinfo id="Silvani_11_13" depart="30.00" departLane="203[0]_0" departPos="0.00" departSpeed="0.00" departDelay="0.00" arrival="174.00" arrivalLane="114_2" arrivalPos="693.37" arrivalSpeed="13.07" duration="144.00" routeLength="1114.20" waitSteps="43" timeLoss="63.40" rerouteNo="0" devices="tripinfo_Silvani_11_13" vType="passenger1" speedFactor="1.00" vaporized=""/>
    <tripinfo id="Pepoli_10_20" depart="34.00" departLane="210_0" departPos="0.00" departSpeed="0.00" departDelay="0.00" arrival="174.00" arrivalLane="204[1][1]_0" arrivalPos="436.47" arrivalSpeed="12.89" duration="140.00" routeLength="1470.53" waitSteps="15" timeLoss="33.67" rerouteNo="0" devices="tripinfo_Pepoli_10_20" vType="passenger1" speedFactor="1.00" vaporized=""/>
    <tripinfo id="Silvani_11_24" depart="56.00" departLane="203[0]_0" departPos="0.00" departSpeed="0.00" departDelay="0.00" arrival="175.00" arrivalLane="114_0" arrivalPos="693.37" arrivalSpeed="13.63" duration="119.00" routeLength="1114.20" waitSteps="23" timeLoss="38.05" rerouteNo="0" devices="tripinfo_Silvani_11_24" vType="passenger1" speedFactor="1.00" vaporized=""/>
    <tripinfo id="Togliatti_71_0" depart="0.00" departLane="85_1" departPos="0.00" departSpeed="0.00" departDelay="0.00" arrival="176.00" arrivalLane="209_0" arrivalPos="395.74" arrivalSpeed="13.66" duration="176.00" routeLength="2033.40" waitSteps="13" timeLoss="28.99" rerouteNo="0" devices="tripinfo_Togliatti_71_0" vType="passenger2b" speedFactor="1.00" vaporized=""/>
    <tripinfo id="Pepoli_10_22" depart="37.00" departLane="210_1" departPos="0.00" departSpeed="0.00" departDelay="0.00" arrival="176.00" arrivalLane="204[1][1]_0" arrivalPos="436.47" arrivalSpeed="12.80" duration="139.00" routeLength="1470.53" waitSteps="12" timeLoss="32.79" rerouteNo="0" devices="tripinfo_Pepoli_10_22" vType="passenger2a" speedFactor="1.00" vaporized=""/>
    <tripinfo id="Silvani_11_17" depart="40.00" departLane="203[0]_0" departPos="0.00" departSpeed="0.00" departDelay="0.00" arrival="176.00" arrivalLane="114_1" arrivalPos="693.37" arrivalSpeed="12.95" duration="136.00" routeLength="1114.20" waitSteps="34" timeLoss="55.05" rerouteNo="0" devices="tripinfo_Silvani_11_17" vType="passenger1" speedFactor="1.00" vaporized=""/>
    <tripinfo id="Silvani_11_27" depart="63.00" departLane="203[0]_0" departPos="0.00" departSpeed="0.00" departDelay="0.00" arrival="176.00" arrivalLane="114_0" arrivalPos="693.37" arrivalSpeed="12.82" duration="113.00" routeLength="1114.20" waitSteps="16" timeLoss="32.77" rerouteNo="0" devices="tripinfo_Silvani_11_27" vType="passenger1" speedFactor="1.00" vaporized=""/>
    <tripinfo id="Pepoli_8_70" depart="120.00" departLane="210_0" departPos="0.00" departSpeed="0.00" departDelay="0.00" arrival="177.00" arrivalLane="134b_0" arrivalPos="158.70" arrivalSpeed="13.80" duration="57.00" routeLength="693.78" waitSteps="0" timeLoss="6.46" rerouteNo="0" devices="tripinfo_Pepoli_8_70" vType="passenger2a" speedFactor="1.00" vaporized=""/>
    <tripinfo id="Silvani_11_32" depart="75.00" departLane="203[0]_0" departPos="0.00" departSpeed="0.00" departDelay="0.00" arrival="178.00" arrivalLane="114_1" arrivalPos="693.37" arrivalSpeed="12.87" duration="103.00" routeLength="1114.20" waitSteps="8" timeLoss="22.13" rerouteNo="0" devices="tripinfo_Silvani_11_32" vType="passenger1" speedFactor="1.00" vaporized=""/>
    <tripinfo id="Togliatti_2_32" depart="46.00" departLane="85_0" departPos="0.00" departSpeed="0.00" departDelay="1.00" arrival="178.00" arrivalLane="77[1][1]_0" arrivalPos="464.92" arrivalSpeed="12.81" duration="132.00" routeLength="1149.26" waitSteps="32" timeLoss="48.48" rerouteNo="0" devices="tripinfo_Togliatti_2_32" vType="passenger5" speedFactor="1.00" vaporized=""/>
    <tripinfo id="Costa_3_33" depart="90.00" departLane="78[0]_0" departPos="0.00" departSpeed="0.00" departDelay="4.00" arrival="178.00" arrivalLane="14_0" arrivalPos="90.27" arrivalSpeed="13.00" duration="88.00" routeLength="854.03" waitSteps="13" timeLoss="25.88" rerouteNo="0" devices="tripinfo_Costa_3_33" vType="passenger2b" speedFactor="1.00" vaporized=""/>
    <tripinfo id="Audinot_10_2" depart="42.00" departLane="131_0" departPos="0.00" departSpeed="0.00" departDelay="0.00" arrival="179.00" arrivalLane="204[1][1]_0" arrivalPos="436.47" arrivalSpeed="13.32" duration="137.00" routeLength="1658.49" waitSteps="0" timeLoss="16.83" rerouteNo="0" devices="tripinfo_Audinot_10_2" vType="passenger2b" speedFactor="1.00" vaporized=""/>
    <tripinfo id="Silvani_7_2" depart="4.00" departLane="203[0]_1" departPos="0.00" departSpeed="0.00" departDelay="0.00" arrival="180.00" arrivalLane="209_1" arrivalPos="395.74" arrivalSpeed="12.82" duration="176.00" routeLength="1455.38" waitSteps="59" timeLoss="70.94" rerouteNo="0" devices="tripinfo_Silvani_7_2" vType="passenger2a" speedFactor="1.00" vaporized=""/>
    <tripinfo id="Silvani_11_33" depart="77.00" departLane="203[0]_0" departPos="0.00" departSpeed="0.00" departDelay="0.00" arrival="180.00" arrivalLane="114_0" arrivalPos="693.37" arrivalSpeed="13.21" duration="103.00" routeLength="1114.20" waitSteps="7" timeLoss="21.98" rerouteNo="0" devices="tripinfo_Silvani_11_33" vType="passenger1" speedFactor="1.00" vaporized=""/>
    <tripinfo id="Togliatti_3_18" depart="25.00" departLane="85_0" departPos="0.00" departSpeed="0.00" departDelay="0.00" arrival="180.00" arrivalLane="14_0" arrivalPos="90.27" arrivalSpeed="12.61" duration="155.00" routeLength="1114.84" waitSteps="51" timeLoss="74.38" rerouteNo="0" devices="tripinfo_Togliatti_3_18" vType="passenger1" speedFactor="1.00" vaporized=""/>
    <tripinfo id="Silvani_7_3" depart="7.00" departLane="203[0]_0" departPos="0.00" departSpeed="0.00" departDelay="0.00" arrival="181.00" arrivalLane="209_0" arrivalPos="395.74" arrivalSpeed="12.64" duration="174.00" routeLength="1455.38" waitSteps="55" timeLoss="68.52" rerouteNo="0" devices="tripinfo_Silvani_7_3" vType="passenger2b" speedFactor="1.00" vaporized=""/>
    <tripinfo id="Silvani_11_34" depart="81.00" departLane="203[0]_0" departPos="0.00" departSpeed="0.00" departDelay="1.00" arrival="181.00" arrivalLane="114_0" arrivalPos="693.37" arrivalSpeed="13.10" duration="100.00" routeLength="1114.20" waitSteps="4" timeLoss="19.62" rerouteNo="0" devices="tripinfo_Silvani_11_34" vType="passenger4" speedFactor="1.00" vaporized=""/>
    <tripinfo id="Silvani_7_5" depart="11.00" departLane="203[0]_0" departPos="0.00" departSpeed="0.00" departDelay="0.00" arrival="182.00" arrivalLane="209_1" arrivalPos="395.74" arrivalSpeed="13.11" duration="171.00" routeLength="1455.38" waitSteps="51" timeLoss="65.81" rerouteNo="0" devices="tripinfo_Silvani_7_5" vType="passenger2b" speedFactor="1.00" vaporized=""/>
    <tripinfo id="Turati_10_0" depart="0.00" departLane="195_0" departPos="0.00" departSpeed="0.00" departDelay="0.00" arrival="182.00" arrivalLane="204[1][1]_0" arrivalPos="436.47" arrivalSpeed="13.38" duration="182.00" routeLength="2048.37" waitSteps="2" timeLoss="33.64" rerouteNo="0" devices="tripinfo_Turati_10_0" vType="passenger1" speedFactor="1.00" vaporized=""/>
    <tripinfo id="Togliatti_3_31" depart="44.00" departLane="85_0" departPos="0.00" departSpeed="0.00" departDelay="0.00" arrival="182.00" arrivalLane="14_0" arrivalPos="90.27" arrivalSpeed="12.78" duration="138.00" routeLength="1114.84" waitSteps="33" timeLoss="57.10" rerouteNo="0" devices="tripinfo_Togliatti_3_31" vType="passenger2b" speedFactor="1.00" vaporized=""/>
    <tripinfo id="Silvani_7_4" depart="9.00" departLane="203[0]_1" departPos="0.00" departSpeed="0.00" departDelay="0.00" arrival="183.00" arrivalLane="209_0" arrivalPos="395.74" arrivalSpeed="12.69" duration="174.00" routeLength="1455.38" waitSteps="55" timeLoss="68.69" rerouteNo="0" devices="tripinfo_Silvani_7_4" vType="passenger2b" speedFactor="1.00" vaporized=""/>
    <tripinfo id="Silvani_11_39" depart="92.00" departLane="203[0]_0" departPos="0.00" departSpeed="0.00" departDelay="0.00" arrival="183.00" arrivalLane="114_0" arrivalPos="693.37" arrivalSpeed="12.83" duration="91.00" routeLength="1114.20" waitSteps="0" timeLoss="10.29" rerouteNo="0" devices="tripinfo_Silvani_11_39" vType="passenger5" speedFactor="1.00" vaporized=""/>
    <tripinfo id="Silvani_7_7" depart="16.00" departLane="203[0]_1" departPos="0.00" departSpeed="0.00" departDelay="0.00" arrival="184.00" arrivalLane="209_1" arrivalPos="395.74" arrivalSpeed="13.85" duration="168.00" routeLength="1455.38" waitSteps="48" timeLoss="62.49" rerouteNo="0" devices="tripinfo_Silvani_7_7" vType="passenger1" speedFactor="1.00" vaporized=""/>
    <tripinfo id="Costa_3_38" depart="104.00" departLane="78[0]_0" departPos="0.00" departSpeed="0.00" departDelay="5.00" arrival="184.00" arrivalLane="14_0" arrivalPos="90.27" arrivalSpeed="12.81" duration="80.00" routeLength="854.03" waitSteps="0" timeLoss="17.63" rerouteNo="0" devices="tripinfo_Costa_3_38" vType="passenger1" speedFactor="1.00" vaporized=""/>
    <tripinfo id="Silvani_7_10" depart="23.00" departLane="203[0]_1" departPos="0.00" departSpeed="0.00" departDelay="0.00" arrival="185.00" arrivalLane="209_1" arrivalPos="395.74" arrivalSpeed="13.42" duration="162.00" routeLength="1455.38" waitSteps="40" timeLoss="57.22" rerouteNo="0" devices="tripinfo_Silvani_7_10" vType="passenger5" speedFactor="1.00" vaporized=""/>
    <tripinfo id="Silvani_11_41" depart="96.00" departLane="203[0]_0" departPos="0.00" departSpeed="0.00" departDelay="0.00" arrival="185.00" arrivalLane="114_0" arrivalPos="693.37" arrivalSpeed="13.67" duration="89.00" routeLength="1114.20" waitSteps="0" timeLoss="8.25" rerouteNo="0" devices="tripinfo_Silvani_11_41" vType="passenger1" speedFactor="1.00" vaporized=""/>
    <tripinfo id="Togliatti_2_40" depart="57.00" departLane="85_0" departPos="0.00" departSpeed="0.00" departDelay="1.00" arrival="185.00" arrivalLane="77[1][1]_0" arrivalPos="464.92" arrivalSpeed="12.57" duration="128.00" routeLength="1149.26" waitSteps="28" timeLoss="44.68" rerouteNo="0" devices="tripinfo_Togliatti_2_40" vType="passenger2a" speedFactor="1.00" vaporized=""/>
    <tripinfo id="Pepoli_8_75" depart="128.00" departLane="210_0" departPos="0.00" departSpeed="0.00" departDelay="0.00" arrival="185.00" arrivalLane="134b_0" arrivalPos="158.70" arrivalSpeed="12.58" duration="57.00" routeLength="693.78" waitSteps="0" timeLoss="6.27" rerouteNo="0" devices="tripinfo_Pepoli_8_75" vType="passenger2b" speedFactor="1.00" vaporized=""/>
    <tripinfo id="Togliatti_3_39" depart="55.00" departLane="85_0" departPos="0.00" departSpeed="0.00" departDelay="0.00" arrival="185.00" arrivalLane="14_0" arrivalPos="90.27" arrivalSpeed="13.28" duration="130.00" routeLength="1114.84" waitSteps="29" timeLoss="49.38" rerouteNo="0" devices="tripinfo_Togliatti_3_39" vType="passenger2b" speedFactor="1.00" vaporized=""/>
    <tripinfo id="Silvani_7_11" depart="25.00" departLane="203[0]_0" departPos="0.00" departSpeed="0.00" departDelay="0.00" arrival="186.00" arrivalLane="209_0" arrivalPos="395.74" arrivalSpeed="13.69" duration="161.00" routeLength="1455.38" waitSteps="41" timeLoss="56.07" rerouteNo="0" devices="tripinfo_Silvani_7_11" vType="passenger4" speedFactor="1.00" vaporized=""/>
    <tripinfo id="Silvani_7_15" depart="35.00" departLane="203[0]_1" departPos="0.00" departSpeed="0.00" departDelay="0.00" arrival="187.00" arrivalLane="209_1" arrivalPos="395.74" arrivalSpeed="13.21" duration="152.00" routeLength="1455.38" waitSteps="29" timeLoss="46.99" rerouteNo="0" devices="tripinfo_Silvani_7_15" vType="passenger1" speedFactor="1.00" vaporized=""/>
    <tripinfo id="Silvani_7_20" depart="47.00" departLane="203[0]_1" departPos="0.00" departSpeed="0.00" departDelay="0.00" arrival="188.00" arrivalLane="209_0" arrivalPos="395.74" arrivalSpeed="12.66" duration="141.00" routeLength="1455.38" waitSteps="21" timeLoss="36.15" rerouteNo="0" devices="tripinfo_Silvani_7_20" vType="passenger2a" speedFactor="1.00" vaporized=""/>