<?xml version="1.0" encoding="UTF-8"?>

<!-- generated on sáb 01 set 2018 15:26:00 -03 by SUMO gui Version 0.32.0
<?xml version="1.0" encoding="UTF-8"?>

<configuration xmlns:xsi="http://www.w3.org/2001/XMLSchema-instance" xsi:noNamespaceSchemaLocation="http://sumo.dlr.de/xsd/sumoConfiguration.xsd">

    <input>
        <net-file value="/home/wagner/TCC/Bologna_small-0.29.0/acosta_persontrips/acosta_peds.net.xml"/>
        <route-files value="/home/wagner/TCC/Bologna_small-0.29.0/acosta_persontrips/acosta.rou.xml,/home/wagner/TCC/Bologna_small-0.29.0/acosta_persontrips/persontrips.rou.xml"/>
        <additional-files value="/home/wagner/TCC/Bologna_small-0.29.0/acosta_persontrips/acosta_vtypes.add.xml,/home/wagner/TCC/Bologna_small-0.29.0/acosta_persontrips/acosta_bus_stops.add.xml,/home/wagner/TCC/Bologna_small-0.29.0/acosta_persontrips/acosta_tls2.add.xml"/>
    </input>

    <output>
        <tripinfo-output value="/home/wagner/TCC/Bologna_small-0.29.0/acosta_persontrips/tripinfos.xml"/>
        <stop-output value="/home/wagner/TCC/Bologna_small-0.29.0/acosta_persontrips/stops.xml"/>
    </output>

    <report>
        <log value="/home/wagner/TCC/Bologna_small-0.29.0/acosta_persontrips/sumo_log.txt"/>
        <no-step-log value="true"/>
    </report>

    <gui_only>
        <gui-settings-file value="/home/wagner/TCC/Bologna_small-0.29.0/acosta_persontrips/settings.gui.xml"/>
    </gui_only>

</configuration>
-->

<tripinfos xmlns:xsi="http://www.w3.org/2001/XMLSchema-instance" xsi:noNamespaceSchemaLocation="http://sumo.dlr.de/xsd/tripinfo_file.xsd">
    <personinfo id="13" depart="5.20">
        <walk depart="6.00" departPos="0.00" arrival="7.00" arrivalPos="0.00" duration="1.00" routeLength="0.10" timeLoss="0.93" maxSpeed="1.39"/>
    </personinfo>
    <personinfo id="127" depart="50.80">
        <walk depart="51.00" departPos="0.00" arrival="52.00" arrivalPos="0.00" duration="1.00" routeLength="0.10" timeLoss="0.93" maxSpeed="1.39"/>
    </personinfo>
    <personinfo id="130" depart="52.00">
        <walk depart="52.00" departPos="0.00" arrival="53.00" arrivalPos="0.00" duration="1.00" routeLength="0.10" timeLoss="0.93" maxSpeed="1.39"/>
    </personinfo>
    <tripinfo id="Pepoli_8_16" depart="27.00" departLane="210_1" departPos="0.00" departSpeed="0.00" departDelay="0.00" arrival="86.00" arrivalLane="134b_1" arrivalPos="157.47" arrivalSpeed="12.58" duration="59.00" routeLength="692.14" waitSteps="0" timeLoss="8.39" rerouteNo="0" devices="tripinfo_Pepoli_8_16" vType="passenger2b" speedFactor="1.00" vaporized=""/>
    <personinfo id="178" depart="71.20">
        <walk depart="72.00" departPos="0.00" arrival="88.00" arrivalPos="0.00" duration="16.00" routeLength="13.87" timeLoss="6.01" maxSpeed="1.39"/>
    </personinfo>
    <tripinfo id="Silvani_11_0" depart="0.00" departLane="203[0]_1" departPos="0.00" departSpeed="0.00" departDelay="0.00" arrival="89.00" arrivalLane="114_1" arrivalPos="692.01" arrivalSpeed="13.48" duration="89.00" routeLength="1113.85" waitSteps="0" timeLoss="8.14" rerouteNo="0" devices="tripinfo_Silvani_11_0" vType="passenger2a" speedFactor="1.00" vaporized=""/>
    <tripinfo id="Pepoli_8_21" depart="36.00" departLane="210_1" departPos="0.00" departSpeed="0.00" departDelay="0.00" arrival="96.00" arrivalLane="134b_1" arrivalPos="157.47" arrivalSpeed="13.12" duration="60.00" routeLength="692.14" waitSteps="0" timeLoss="9.39" rerouteNo="0" devices="tripinfo_Pepoli_8_21" vType="passenger2b" speedFactor="1.00" vaporized=""/>
    <personinfo id="245" depart="98.00">
        <walk depart="98.00" departPos="0.00" arrival="99.00" arrivalPos="0.00" duration="1.00" routeLength="0.10" timeLoss="0.93" maxSpeed="1.39"/>
    </personinfo>
    <personinfo id="36" depart="14.40">
        <walk depart="15.00" departPos="0.00" arrival="99.00" arrivalPos="0.00" duration="84.00" routeLength="96.97" timeLoss="14.18" maxSpeed="1.39"/>
    </personinfo>
    <tripinfo id="Pepoli_8_23" depart="39.00" departLane="210_1" departPos="0.00" departSpeed="0.00" departDelay="0.00" arrival="99.00" arrivalLane="134b_1" arrivalPos="157.47" arrivalSpeed="12.65" duration="60.00" routeLength="692.14" waitSteps="0" timeLoss="9.35" rerouteNo="0" devices="tripinfo_Pepoli_8_23" vType="passenger2a" speedFactor="1.00" vaporized=""/>
    <tripinfo id="Togliatti_2_8" depart="11.00" departLane="85_1" departPos="0.00" departSpeed="0.00" departDelay="0.00" arrival="106.00" arrivalLane="77[1][1]_1" arrivalPos="462.81" arrivalSpeed="13.51" duration="95.00" routeLength="1149.37" waitSteps="0" timeLoss="11.73" rerouteNo="0" devices="tripinfo_Togliatti_2_8" vType="passenger1" speedFactor="1.00" vaporized=""/>
    <personinfo id="167" depart="66.80">
        <walk depart="67.00" departPos="0.00" arrival="108.00" arrivalPos="0.00" duration="41.00" routeLength="41.47" timeLoss="11.14" maxSpeed="1.39"/>
    </personinfo>
    <personinfo id="37" depart="14.80">
        <walk depart="15.00" departPos="0.00" arrival="114.00" arrivalPos="0.00" duration="99.00" routeLength="110.29" timeLoss="19.59" maxSpeed="1.39"/>
    </personinfo>
    <tripinfo id="Costa_1_2" depart="9.00" departLane="78[0]_1" departPos="0.00" departSpeed="0.00" departDelay="4.00" arrival="114.00" arrivalLane="86_1" arrivalPos="320.48" arrivalSpeed="13.80" duration="105.00" routeLength="1185.07" waitSteps="0" timeLoss="18.70" rerouteNo="0" devices="tripinfo_Costa_1_2" vType="passenger1" speedFactor="1.00" vaporized=""/>
    <tripinfo id="Costa_12_0" depart="0.00" departLane="78[0]_1" departPos="0.00" departSpeed="0.00" departDelay="0.00" arrival="114.00" arrivalLane="136_1" arrivalPos="186.65" arrivalSpeed="12.65" duration="114.00" routeLength="1415.80" waitSteps="0" timeLoss="11.76" rerouteNo="0" devices="tripinfo_Costa_12_0" vType="passenger3" speedFactor="1.00" vaporized=""/>
    <tripinfo id="Costa_1_4" depart="15.00" departLane="78[0]_1" departPos="0.00" departSpeed="0.00" departDelay="5.00" arrival="116.00" arrivalLane="86_3" arrivalPos="320.48" arrivalSpeed="13.69" duration="101.00" routeLength="1185.07" waitSteps="1" timeLoss="14.92" rerouteNo="0" devices="tripinfo_Costa_1_4" vType="passenger3" speedFactor="1.00" vaporized=""/>
    <tripinfo id="Costa_12_1" depart="5.00" departLane="78[0]_1" departPos="0.00" departSpeed="0.00" departDelay="3.00" arrival="122.00" arrivalLane="136_1" arrivalPos="186.65" arrivalSpeed="13.18" duration="117.00" routeLength="1415.80" waitSteps="0" timeLoss="14.76" rerouteNo="0" devices="tripinfo_Costa_12_1" vType="passenger1" speedFactor="1.00" vaporized=""/>
    <tripinfo id="Audinot_7_0" depart="0.00" departLane="131_1" departPos="0.00" departSpeed="0.00" departDelay="0.00" arrival="124.00" arrivalLane="209_1" arrivalPos="392.51" arrivalSpeed="13.85" duration="124.00" routeLength="873.62" waitSteps="47" timeLoss="60.87" rerouteNo="0" devices="tripinfo_Audinot_7_0" vType="passenger4" speedFactor="1.00" vaporized=""/>
    <tripinfo id="Costa_3_21" depart="56.00" departLane="78[0]_1" departPos="0.00" departSpeed="0.00" departDelay="2.00" arrival="127.00" arrivalLane="14_1" arrivalPos="85.59" arrivalSpeed="13.40" duration="71.00" routeLength="849.38" waitSteps="0" timeLoss="9.59" rerouteNo="0" devices="tripinfo_Costa_3_21" vType="passenger3" speedFactor="1.00" vaporized=""/>
    <tripinfo id="Costa_12_3" depart="12.00" departLane="78[0]_1" departPos="0.00" departSpeed="0.00" departDelay="5.00" arrival="131.00" arrivalLane="136_1" arrivalPos="186.65" arrivalSpeed="13.16" duration="119.00" routeLength="1415.80" waitSteps="0" timeLoss="16.32" rerouteNo="0" devices="tripinfo_Costa_12_3" vType="passenger1" speedFactor="1.00" vaporized=""/>
    <tripinfo id="Costa_12_7" depart="21.00" departLane="78[0]_1" departPos="0.00" departSpeed="0.00" departDelay="3.00" arrival="137.00" arrivalLane="136_1" arrivalPos="186.65" arrivalSpeed="13.88" duration="116.00" routeLength="1415.80" waitSteps="0" timeLoss="13.45" rerouteNo="0" devices="tripinfo_Costa_12_7" vType="passenger1" speedFactor="1.00" vaporized=""/>
    <tripinfo id="bus_81.0" depart="4.00" departLane="55_1" departPos="12.10" departSpeed="0.00" departDelay="4.00" arrival="139.00" arrivalLane="114_1" arrivalPos="693.01" arrivalSpeed="13.11" duration="135.00" routeLength="1048.73" waitSteps="29" timeLoss="57.07" rerouteNo="0" devices="tripinfo_bus_81.0" vType="bus" speedFactor="1.00" vaporized=""/>
    <tripinfo id="Costa_12_9" depart="26.00" departLane="78[0]_1" departPos="0.00" departSpeed="0.00" departDelay="3.00" arrival="142.00" arrivalLane="136_1" arrivalPos="186.65" arrivalSpeed="13.76" duration="116.00" routeLength="1415.80" waitSteps="0" timeLoss="13.16" rerouteNo="0" devices="tripinfo_Costa_12_9" vType="passenger4" speedFactor="1.00" vaporized=""/>
    <personinfo id="132" depart="52.80">
        <walk depart="53.00" departPos="0.00" arrival="143.00" arrivalPos="0.00" duration="90.00" routeLength="116.89" timeLoss="5.84" maxSpeed="1.39"/>
    </personinfo>
    <tripinfo id="Costa_12_11" depart="29.00" departLane="78[0]_1" departPos="0.00" departSpeed="0.00" departDelay="1.00" arrival="147.00" arrivalLane="136_1" arrivalPos="186.65" arrivalSpeed="13.65" duration="118.00" routeLength="1415.80" waitSteps="0" timeLoss="15.10" rerouteNo="0" devices="tripinfo_Costa_12_11" vType="passenger1" speedFactor="1.00" vaporized=""/>
    <tripinfo id="bus_91.0" depart="8.00" departLane="55_1" departPos="12.10" departSpeed="0.00" departDelay="8.00" arrival="150.00" arrivalLane="114_1" arrivalPos="693.01" arrivalSpeed="12.85" duration="142.00" routeLength="1048.73" waitSteps="27" timeLoss="64.17" rerouteNo="0" devices="tripinfo_bus_91.0" vType="bus" speedFactor="1.00" vaporized=""/>
    <tripinfo id="Turati_3_2" depart="69.00" departLane="195_1" departPos="0.00" departSpeed="0.00" departDelay="0.00" arrival="151.00" arrivalLane="14_1" arrivalPos="85.59" arrivalSpeed="13.07" duration="82.00" routeLength="948.42" waitSteps="0" timeLoss="13.08" rerouteNo="0" devices="tripinfo_Turati_3_2" vType="ignoring5" speedFactor="1.00" vaporized=""/>
    <tripinfo id="Pepoli_8_25" depart="42.00" departLane="210_1" departPos="0.00" departSpeed="0.00" departDelay="0.00" arrival="151.00" arrivalLane="134b_1" arrivalPos="157.47" arrivalSpeed="13.21" duration="109.00" routeLength="692.14" waitSteps="45" timeLoss="58.74" rerouteNo="0" devices="tripinfo_Pepoli_8_25" vType="passenger4" speedFactor="1.00" vaporized=""/>
    <personinfo id="119" depart="47.60">
        <walk depart="48.00" departPos="0.00" arrival="152.00" arrivalPos="0.00" duration="104.00" routeLength="128.93" timeLoss="11.17" maxSpeed="1.39"/>
    </personinfo>
    <tripinfo id="Pepoli_8_28" depart="48.00" departLane="210_1" departPos="0.00" departSpeed="0.00" departDelay="0.00" arrival="153.00" arrivalLane="134b_1" arrivalPos="157.47" arrivalSpeed="13.44" duration="105.00" routeLength="692.14" waitSteps="42" timeLoss="54.72" rerouteNo="0" devices="tripinfo_Pepoli_8_28" vType="passenger2b" speedFactor="1.00" vaporized=""/>
    <tripinfo id="Togliatti_12_15" depart="21.00" departLane="85_3" departPos="0.00" departSpeed="0.00" departDelay="0.00" arrival="154.00" arrivalLane="136_1" arrivalPos="186.65" arrivalSpeed="13.26" duration="133.00" routeLength="909.99" waitSteps="53" timeLoss="67.03" rerouteNo="0" devices="tripinfo_Togliatti_12_15" vType="passenger2b" speedFactor="1.00" vaporized=""/>
    <personinfo id="8" depart="3.20">
        <walk depart="4.00" departPos="0.00" arrival="155.00" arrivalPos="0.00" duration="151.00" routeLength="183.11" timeLoss="19.16" maxSpeed="1.39"/>
    </personinfo>
    <tripinfo id="Togliatti_12_24" depart="34.00" departLane="85_3" departPos="0.00" departSpeed="0.00" departDelay="0.00" arrival="157.00" arrivalLane="136_1" arrivalPos="186.65" arrivalSpeed="13.14" duration="123.00" routeLength="909.99" waitSteps="40" timeLoss="57.41" rerouteNo="0" devices="tripinfo_Togliatti_12_24" vType="passenger3" speedFactor="1.00" vaporized=""/>
    <personinfo id="20" depart="8.00">
        <walk depart="8.00" departPos="0.00" arrival="158.00" arrivalPos="0.00" duration="150.00" routeLength="178.19" timeLoss="21.70" maxSpeed="1.39"/>
    </personinfo>
    <personinfo id="166" depart="66.40">
        <walk depart="67.00" departPos="0.00" arrival="158.00" arrivalPos="0.00" duration="91.00" routeLength="113.06" timeLoss="9.60" maxSpeed="1.39"/>
    </personinfo>
    <tripinfo id="Pepoli_3_0" depart="0.00" departLane="210_3" departPos="0.00" departSpeed="0.00" departDelay="0.00" arrival="158.00" arrivalLane="14_1" arrivalPos="85.59" arrivalSpeed="12.74" duration="158.00" routeLength="1943.05" waitSteps="0" timeLoss="17.41" rerouteNo="0" devices="tripinfo_Pepoli_3_0" vType="ignoring1" speedFactor="1.00" vaporized=""/>
    <tripinfo id="Togliatti_12_48" depart="68.00" departLane="85_3" departPos="0.00" departSpeed="0.00" departDelay="0.00" arrival="160.00" arrivalLane="136_1" arrivalPos="186.65" arrivalSpeed="12.99" duration="92.00" routeLength="909.99" waitSteps="9" timeLoss="26.12" rerouteNo="0" devices="tripinfo_Togliatti_12_48" vType="passenger2a" speedFactor="1.00" vaporized=""/>
    <tripinfo id="Pepoli_3_2" depart="3.00" departLane="210_3" departPos="0.00" departSpeed="0.00" departDelay="0.00" arrival="161.00" arrivalLane="14_1" arrivalPos="85.59" arrivalSpeed="12.67" duration="158.00" routeLength="1943.05" waitSteps="0" timeLoss="17.33" rerouteNo="0" devices="tripinfo_Pepoli_3_2" vType="ignoring1" speedFactor="1.00" vaporized=""/>
    <tripinfo id="bus_13.0" depart="0.00" departLane="55_1" departPos="12.10" departSpeed="0.00" departDelay="0.00" arrival="161.00" arrivalLane="114_1" arrivalPos="693.01" arrivalSpeed="12.74" duration="161.00" routeLength="1048.73" waitSteps="40" timeLoss="64.10" rerouteNo="0" devices="tripinfo_bus_13.0" vType="bus" speedFactor="1.00" vaporized=""/>
    <personinfo id="174" depart="69.60">
        <walk depart="70.00" departPos="0.00" arrival="162.00" arrivalPos="0.00" duration="92.00" routeLength="109.65" timeLoss="13.05" maxSpeed="1.39"/>
    </personinfo>
    <tripinfo id="Togliatti_12_59" depart="84.00" departLane="85_3" departPos="0.00" departSpeed="0.00" departDelay="0.00" arrival="162.00" arrivalLane="136_1" arrivalPos="186.65" arrivalSpeed="13.58" duration="78.00" routeLength="909.99" waitSteps="0" timeLoss="12.43" rerouteNo="0" devices="tripinfo_Togliatti_12_59" vType="passenger2b" speedFactor="1.00" vaporized=""/>
    <tripinfo id="Pepoli_8_44" depart="75.00" departLane="210_1" departPos="0.00" departSpeed="0.00" departDelay="0.00" arrival="163.00" arrivalLane="134b_1" arrivalPos="157.47" arrivalSpeed="13.71" duration="88.00" routeLength="692.14" waitSteps="22" timeLoss="37.47" rerouteNo="0" devices="tripinfo_Pepoli_8_44" vType="passenger3" speedFactor="1.00" vaporized=""/>
    <tripinfo id="Pepoli_10_4" depart="6.00" departLane="210_1" departPos="0.00" departSpeed="0.00" departDelay="0.00" arrival="164.00" arrivalLane="204[1][1]_1" arrivalPos="432.89" arrivalSpeed="13.72" duration="158.00" routeLength="1468.53" waitSteps="38" timeLoss="51.75" rerouteNo="0" devices="tripinfo_Pepoli_10_4" vType="passenger4" speedFactor="1.00" vaporized=""/>
    <tripinfo id="Pepoli_8_48" depart="82.00" departLane="210_1" departPos="0.00" departSpeed="0.00" departDelay="0.00" arrival="165.00" arrivalLane="134b_1" arrivalPos="157.47" arrivalSpeed="12.95" duration="83.00" routeLength="692.14" waitSteps="17" timeLoss="32.69" rerouteNo="0" devices="tripinfo_Pepoli_8_48" vType="passenger3" speedFactor="1.00" vaporized=""/>
    <tripinfo id="Pepoli_10_10" depart="17.00" departLane="210_1" departPos="0.00" departSpeed="0.00" departDelay="0.00" arrival="166.00" arrivalLane="204[1][1]_1" arrivalPos="432.89" arrivalSpeed="12.73" duration="149.00" routeLength="1468.53" waitSteps="27" timeLoss="42.77" rerouteNo="0" devices="tripinfo_Pepoli_10_10" vType="passenger1" speedFactor="1.00" vaporized=""/>
    <tripinfo id="Pepoli_10_11" depart="19.00" departLane="210_1" departPos="0.00" departSpeed="0.00" departDelay="1.00" arrival="168.00" arrivalLane="204[1][1]_1" arrivalPos="432.89" arrivalSpeed="13.30" duration="149.00" routeLength="1468.53" waitSteps="24" timeLoss="42.59" rerouteNo="0" devices="tripinfo_Pepoli_10_11" vType="passenger1" speedFactor="1.00" vaporized=""/>
    <tripinfo id="Vittorio_Veneto_1_4" depart="18.00" departLane="224[0]_1" departPos="0.00" departSpeed="0.00" departDelay="0.00" arrival="169.00" arrivalLane="86_1" arrivalPos="320.48" arrivalSpeed="13.66" duration="151.00" routeLength="1143.04" waitSteps="54" timeLoss="68.29" rerouteNo="0" devices="tripinfo_Vittorio_Veneto_1_4" vType="passenger1" speedFactor="1.00" vaporized=""/>
    <tripinfo id="Silvani_11_1" depart="2.00" departLane="203[0]_1" departPos="0.00" departSpeed="0.00" departDelay="0.00" arrival="169.00" arrivalLane="114_1" arrivalPos="692.01" arrivalSpeed="13.34" duration="167.00" routeLength="1113.85" waitSteps="73" timeLoss="86.34" rerouteNo="0" devices="tripinfo_Silvani_11_1" vType="passenger2b" speedFactor="1.00" vaporized=""/>
    <tripinfo id="XXI_Aprile_2_12" depart="42.00" departLane="13_1" departPos="0.00" departSpeed="0.00" departDelay="0.00" arrival="170.00" arrivalLane="77[1][1]_1" arrivalPos="462.81" arrivalSpeed="13.01" duration="128.00" routeLength="978.97" waitSteps="40" timeLoss="57.27" rerouteNo="0" devices="tripinfo_XXI_Aprile_2_12" vType="passenger3" speedFactor="1.00" vaporized=""/>
    <tripinfo id="Pepoli_10_18" depart="30.00" departLane="210_1" departPos="0.00" departSpeed="0.00" departDelay="0.00" arrival="170.00" arrivalLane="204[1][1]_1" arrivalPos="432.89" arrivalSpeed="12.97" duration="140.00" routeLength="1468.53" waitSteps="16" timeLoss="33.42" rerouteNo="0" devices="tripinfo_Pepoli_10_18" vType="passenger1" speedFactor="1.00" vaporized=""/>
    <tripinfo id="Pepoli_8_51" depart="88.00" departLane="210_1" departPos="0.00" departSpeed="0.00" departDelay="1.00" arrival="171.00" arrivalLane="134b_1" arrivalPos="157.47" arrivalSpeed="12.59" duration="83.00" routeLength="692.14" waitSteps="15" timeLoss="32.40" rerouteNo="0" devices="tripinfo_Pepoli_8_51" vType="passenger3" speedFactor="1.00" vaporized=""/>
    <tripinfo id="Pepoli_10_20" depart="34.00" departLane="210_1" departPos="0.00" departSpeed="0.00" departDelay="0.00" arrival="171.00" arrivalLane="204[1][1]_1" arrivalPos="432.89" arrivalSpeed="12.66" duration="137.00" routeLength="1468.53" waitSteps="15" timeLoss="31.13" rerouteNo="0" devices="tripinfo_Pepoli_10_20" vType="passenger1" speedFactor="1.00" vaporized=""/>
    <tripinfo id="Pepoli_8_62" depart="106.00" departLane="210_1" departPos="0.00" departSpeed="0.00" departDelay="0.00" arrival="173.00" arrivalLane="134b_1" arrivalPos="157.47" arrivalSpeed="12.60" duration="67.00" routeLength="692.14" waitSteps="0" timeLoss="16.57" rerouteNo="0" devices="tripinfo_Pepoli_8_62" vType="passenger1" speedFactor="1.00" vaporized=""/>
    <tripinfo id="Turati_10_0" depart="0.00" departLane="195_1" departPos="0.00" departSpeed="0.00" departDelay="0.00" arrival="174.00" arrivalLane="204[1][1]_1" arrivalPos="432.89" arrivalSpeed="13.58" duration="174.00" routeLength="2044.21" waitSteps="1" timeLoss="26.12" rerouteNo="0" devices="tripinfo_Turati_10_0" vType="passenger1" speedFactor="1.00" vaporized=""/>
    <tripinfo id="Togliatti_71_0" depart="0.00" departLane="85_2" departPos="0.00" departSpeed="0.00" departDelay="0.00" arrival="175.00" arrivalLane="209_1" arrivalPos="392.51" arrivalSpeed="12.75" duration="175.00" routeLength="2032.77" waitSteps="15" timeLoss="28.63" rerouteNo="0" devices="tripinfo_Togliatti_71_0" vType="passenger2b" speedFactor="1.00" vaporized=""/>
    <tripinfo id="Pepoli_10_19" depart="32.00" departLane="210_2" departPos="0.00" departSpeed="0.00" departDelay="0.00" arrival="177.00" arrivalLane="204[1][1]_1" arrivalPos="432.89" arrivalSpeed="12.95" duration="145.00" routeLength="1468.53" waitSteps="17" timeLoss="39.24" rerouteNo="0" devices="tripinfo_Pepoli_10_19" vType="passenger2b" speedFactor="1.00" vaporized=""/>
    <tripinfo id="Costa_3_33" depart="89.00" departLane="78[0]_1" departPos="0.00" departSpeed="0.00" departDelay="3.00" arrival="178.00" arrivalLane="14_1" arrivalPos="85.59" arrivalSpeed="12.78" duration="89.00" routeLength="849.38" waitSteps="11" timeLoss="27.02" rerouteNo="0" devices="tripinfo_Costa_3_33" vType="passenger2b" speedFactor="1.00" vaporized=""/>
    <tripinfo id="Togliatti_3_18" depart="25.00" departLane="85_1" departPos="0.00" departSpeed="0.00" departDelay="0.00" arrival="179.00" arrivalLane="14_1" arrivalPos="85.59" arrivalSpeed="12.69" duration="154.00" routeLength="1110.32" waitSteps="48" timeLoss="73.91" rerouteNo="0" devices="tripinfo_Togliatti_3_18" vType="passenger1" speedFactor="1.00" vaporized=""/>
    <tripinfo id="Pepoli_8_70" depart="120.00" departLane="210_1" departPos="0.00" departSpeed="0.00" departDelay="0.00" arrival="179.00" arrivalLane="134b_1" arrivalPos="157.47" arrivalSpeed="12.78" duration="59.00" routeLength="692.14" waitSteps="0" timeLoss="8.40" rerouteNo="0" devices="tripinfo_Pepoli_8_70" vType="passenger2a" speedFactor="1.00" vaporized=""/>
    <tripinfo id="Togliatti_3_31" depart="44.00" departLane="85_1" departPos="0.00" departSpeed="0.00" departDelay="0.00" arrival="181.00" arrivalLane="14_1" arrivalPos="85.59" arrivalSpeed="13.56" duration="137.00" routeLength="1110.32" waitSteps="35" timeLoss="56.62" rerouteNo="0" devices="tripinfo_Togliatti_3_31" vType="passenger2b" speedFactor="1.00" vaporized=""/>
    <personinfo id="412" depart="164.80">
        <walk depart="165.00" departPos="0.00" arrival="183.00" arrivalPos="0.00" duration="18.00" routeLength="21.04" timeLoss="2.85" maxSpeed="1.39"/>
    </personinfo>
    <tripinfo id="Costa_3_38" depart="105.00" departLane="78[0]_1" departPos="0.00" departSpeed="0.00" departDelay="6.00" arrival="183.00" arrivalLane="14_1" arrivalPos="85.59" arrivalSpeed="13.02" duration="78.00" routeLength="849.38" waitSteps="3" timeLoss="16.12" rerouteNo="0" devices="tripinfo_Costa_3_38" vType="passenger1" speedFactor="1.00" vaporized=""/>
    <tripinfo id="Pepoli_10_22" depart="37.00" departLane="210_2" departPos="0.00" departSpeed="0.00" departDelay="0.00" arrival="183.00" arrivalLane="204[1][1]_1" arrivalPos="432.89" arrivalSpeed="13.10" duration="146.00" routeLength="1468.53" waitSteps="15" timeLoss="39.70" rerouteNo="0" devices="tripinfo_Pepoli_10_22" vType="passenger2a" speedFactor="1.00" vaporized=""/>
    <personinfo id="337" depart="134.80">
        <walk depart="135.00" departPos="0.00" arrival="185.00" arrivalPos="0.00" duration="50.00" routeLength="50.51" timeLoss="13.63" maxSpeed="1.39"/>
    </personinfo>
    <tripinfo id="Togliatti_2_32" depart="46.00" departLane="85_1" departPos="0.00" departSpeed="0.00" departDelay="1.00" arrival="185.00" arrivalLane="77[1][1]_1" arrivalPos="462.81" arrivalSpeed="13.39" duration="139.00" routeLength="1149.37" waitSteps="32" timeLoss="55.80" rerouteNo="0" devices="tripinfo_Togliatti_2_32" vType="passenger5" speedFactor="1.00" vaporized=""/>
    <tripinfo id="Silvani_11_8" depart="18.00" departLane="203[0]_1" departPos="0.00" departSpeed="0.00" departDelay="0.00" arrival="185.00" arrivalLane="114_1" arrivalPos="692.01" arrivalSpeed="13.34" duration="167.00" routeLength="1113.85" waitSteps="64" timeLoss="85.98" rerouteNo="0" devices="tripinfo_Silvani_11_8" vType="passenger1" speedFactor="1.00" vaporized=""/>
    <personinfo id="355" depart="142.00">
        <walk depart="142.00" departPos="0.00" arrival="187.00" arrivalPos="0.00" duration="45.00" routeLength="44.18" timeLoss="13.19" maxSpeed="1.39"/>
    </personinfo>
    <tripinfo id="Togliatti_3_39" depart="55.00" departLane="85_1" departPos="0.00" departSpeed="0.00" departDelay="0.00" arrival="187.00" arrivalLane="14_1" arrivalPos="85.59" arrivalSpeed="13.40" duration="132.00" routeLength="1110.32" waitSteps="28" timeLoss="51.81" rerouteNo="0" devices="tripinfo_Togliatti_3_39" vType="passenger2b" speedFactor="1.00" vaporized=""/>
    <tripinfo id="Silvani_11_9" depart="21.00" departLane="203[0]_1" departPos="0.00" departSpeed="0.00" departDelay="0.00" arrival="187.00" arrivalLane="114_1" arrivalPos="692.01" arrivalSpeed="13.11" duration="166.00" routeLength="1113.85" waitSteps="62" timeLoss="85.13" rerouteNo="0" devices="tripinfo_Silvani_11_9" vType="passenger3" speedFactor="1.00" vaporized=""/>
    <tripinfo id="Vittorio_Veneto_1_10" depart="45.00" departLane="224[0]_1" departPos="0.00" departSpeed="0.00" departDelay="0.00" arrival="188.00" arrivalLane="86_1" arrivalPos="320.48" arrivalSpeed="12.96" duration="143.00" routeLength="1143.04" waitSteps="46" timeLoss="60.46" rerouteNo="0" devices="tripinfo_Vittorio_Veneto_1_10" vType="passenger1" speedFactor="1.00" vaporized=""/>
    <tripinfo id="Pepoli_8_75" depart="128.00" departLane="210_1" departPos="0.00" departSpeed="0.00" departDelay="0.00" arrival="188.00" arrivalLane="134b_1" arrivalPos="157.47" arrivalSpeed="12.92" duration="60.00" routeLength="692.14" waitSteps="0" timeLoss="9.33" rerouteNo="0" devices="tripinfo_Pepoli_8_75" vType="passenger2b" speedFactor="1.00" vaporized=""/>
    <personinfo id="422" depart="168.80">
        <walk depart="169.00" departPos="0.00" arrival="189.00" arrivalPos="0.00" duration="20.00" routeLength="13.53" timeLoss="10.26" maxSpeed="1.39"/>
    </personinfo>
    <tripinfo id="Silvani_11_12" depart="28.00" departLane="203[0]_1" departPos="0.00" departSpeed="0.00" departDelay="0.00" arrival="189.00" arrivalLane="114_1" arrivalPos="692.01" arrivalSpeed="13.37" duration="161.00" routeLength="1113.85" waitSteps="58" timeLoss="80.12" rerouteNo="0" devices="tripinfo_Silvani_11_12" vType="passenger2b" speedFactor="1.00" vaporized=""/>
    <tripinfo id="Audinot_10_2" depart="42.00" departLane="131_1" departPos="0.00" departSpeed="0.00" departDelay="0.00" arrival="190.00" arrivalLane="204[1][1]_1" arrivalPos="432.89" arrivalSpeed="13.16" duration="148.00" routeLength="1653.25" waitSteps="4" timeLoss="28.04" rerouteNo="0" devices="tripinfo_Audinot_10_2" vType="passenger2b" speedFactor="1.00" vaporized=""/>
    <tripinfo id="Silvani_11_13" depart="30.00" departLane="203[0]_1" departPos="0.00" departSpeed="0.00" departDelay="0.00" arrival="191.00" arrivalLane="114_1" arrivalPos="692.01" arrivalSpeed="13.00" duration="161.00" routeLength="1113.85" waitSteps="54" timeLoss="79.89" rerouteNo="0" devices="tripinfo_Silvani_11_13" vType="passenger1" speedFactor="1.00" vaporized=""/>
    <tripinfo id="Silvani_11_14" depart="33.00" departLane="203[0]_1" departPos="0.00" departSpeed="0.00" departDelay="0.00" arrival="192.00" arrivalLane="114_1" arrivalPos="692.01" arrivalSpeed="13.28" duration="159.00" routeLength="1113.85" waitSteps="53" timeLoss="78.60" rerouteNo="0" devices="tripinfo_Silvani_11_14" vType="passenger1" speedFactor="1.00" vaporized=""/>
    <personinfo id="64" depart="25.60">
        <walk depart="26.00" departPos="0.00" arrival="193.00" arrivalPos="0.00" duration="167.00" routeLength="202.69" timeLoss="21.06" maxSpeed="1.39"/>
    </personinfo>
    <tripinfo id="Vittorio_Veneto_1_12" depart="55.00" departLane="224[0]_1" departPos="0.00" departSpeed="0.00" departDelay="0.00" arrival="193.00" arrivalLane="86_1" arrivalPos="320.48" arrivalSpeed="12.82" duration="138.00" routeLength="1143.04" waitSteps="40" timeLoss="54.94" rerouteNo="0" devices="tripinfo_Vittorio_Veneto_1_12" vType="passenger2a" speedFactor="1.00" vaporized=""/>
    <tripinfo id="Togliatti_2_40" depart="57.00" departLane="85_1" departPos="0.00" departSpeed="0.00" departDelay="1.00" arrival="193.00" arrivalLane="77[1][1]_1" arrivalPos="462.81" arrivalSpeed="13.87" duration="136.00" routeLength="1149.37" waitSteps="27" timeLoss="53.13" rerouteNo="0" devices="tripinfo_Togliatti_2_40" vType="passenger2a" speedFactor="1.00" vaporized=""/>
    <tripinfo id="Silvani_11_16" depart="37.00" departLane="203[0]_1" departPos="0.00" departSpeed="0.00" departDelay="0.00" arrival="194.00" arrivalLane="114_1" arrivalPos="692.01" arrivalSpeed="13.19" duration="157.00" routeLength="1113.85" waitSteps="51" timeLoss="76.63" rerouteNo="0" devices="tripinfo_Silvani_11_16" vType="passenger2a" speedFactor="1.00" vaporized=""/>
    <tripinfo id="Togliatti_2_45" depart="64.00" departLane="85_1" departPos="0.00" departSpeed="0.00" departDelay="0.00" arrival="197.00" arrivalLane="77[1][1]_1" arrivalPos="462.81" arrivalSpeed="13.84" duration="133.00" routeLength="1149.37" waitSteps="23" timeLoss="49.76" rerouteNo="0" devices="tripinfo_Togliatti_2_45" vType="passenger3" speedFactor="1.00" vaporized=""/>
    <tripinfo id="Silvani_11_17" depart="40.00" departLane="203[0]_1" departPos="0.00" departSpeed="0.00" departDelay="0.00" arrival="198.00" arrivalLane="114_1" arrivalPos="692.01" arrivalSpeed="13.00" duration="158.00" routeLength="1113.85" waitSteps="50" timeLoss="77.40" rerouteNo="0" devices="tripinfo_Silvani_11_17" vType="passenger1" speedFactor="1.00" vaporized=""/>
    <tripinfo id="Turati_10_1" depart="34.00" departLane="195_1" departPos="0.00" departSpeed="0.00" departDelay="0.00" arrival="199.00" arrivalLane="204[1][1]_1" arrivalPos="432.89" arrivalSpeed="13.44" duration="165.00" routeLength="2044.21" waitSteps="0" timeLoss="17.80" rerouteNo="0" devices="tripinfo_Turati_10_1" vType="passenger2a" speedFactor="1.00" vaporized=""/>
    <personinfo id="301" depart="120.40">
        <walk depart="121.00" departPos="0.00" arrival="201.00" arrivalPos="0.00" duration="80.00" routeLength="85.66" timeLoss="18.32" maxSpeed="1.39"/>
    </personinfo>
    <tripinfo id="Togliatti_3_56" depart="79.00" departLane="85_1" departPos="0.00" departSpeed="0.00" departDelay="0.00" arrival="201.00" arrivalLane="14_1" arrivalPos="85.59" arrivalSpeed="13.65" duration="122.00" routeLength="1110.32" waitSteps="14" timeLoss="41.18" rerouteNo="0" devices="tripinfo_Togliatti_3_56" vType="passenger1" speedFactor="1.00" vaporized=""/>