<?xml version="1.0" encoding="UTF-8"?>

<!-- generated on sáb 01 set 2018 17:54:30 -03 by SUMO gui Version 0.32.0
<?xml version="1.0" encoding="UTF-8"?>

<configuration xmlns:xsi="http://www.w3.org/2001/XMLSchema-instance" xsi:noNamespaceSchemaLocation="http://sumo.dlr.de/xsd/sumoConfiguration.xsd">

    <input>
        <net-file value="/home/wagner/TCC/RiLSA_example4/rilsa4.net.xml"/>
        <route-files value="/home/wagner/TCC/RiLSA_example4/genroutes.rou.xml"/>
        <additional-files value="/home/wagner/TCC/RiLSA_example4/vtypes.add.xml,/home/wagner/TCC/RiLSA_example4/rilsa4_tls.add.xml"/>
    </input>

    <output>
        <tripinfo-output value="/home/wagner/TCC/RiLSA_example4/tripinfos.xml"/>
    </output>

    <report>
        <log value="/home/wagner/TCC/RiLSA_example4/sumo_log.txt"/>
    </report>

</configuration>
-->

<tripinfos xmlns:xsi="http://www.w3.org/2001/XMLSchema-instance" xsi:noNamespaceSchemaLocation="http://sumo.dlr.de/xsd/tripinfo_file.xsd">
    <tripinfo id="wm2msLKW.0" depart="0.00" departLane="wm_0" departPos="15.10" departSpeed="13.90" departDelay="0.00" arrival="74.00" arrivalLane="ms_0" arrivalPos="487.65" arrivalSpeed="13.07" duration="74.00" routeLength="972.35" waitSteps="0" timeLoss="3.21" rerouteNo="0" devices="tripinfo_wm2msLKW.0" vType="LKW" speedFactor="1.00" vaporized=""/>
    <tripinfo id="sm2mwLKW.0" depart="0.00" departLane="sm_1" departPos="15.10" departSpeed="13.90" departDelay="0.00" arrival="74.00" arrivalLane="mw_0" arrivalPos="490.95" arrivalSpeed="13.78" duration="74.00" routeLength="982.88" waitSteps="0" timeLoss="2.95" rerouteNo="0" devices="tripinfo_sm2mwLKW.0" vType="LKW" speedFactor="1.00" vaporized=""/>
    <tripinfo id="em2mnLKW.0" depart="0.00" departLane="em_0" departPos="15.10" departSpeed="13.90" departDelay="0.00" arrival="74.00" arrivalLane="mn_0" arrivalPos="490.95" arrivalSpeed="12.83" duration="74.00" routeLength="975.65" waitSteps="0" timeLoss="3.16" rerouteNo="0" devices="tripinfo_em2mnLKW.0" vType="LKW" speedFactor="1.00" vaporized=""/>
    <tripinfo id="wm2meLKW.0" depart="0.00" departLane="wm_1" departPos="15.10" departSpeed="13.90" departDelay="0.00" arrival="75.00" arrivalLane="me_0" arrivalPos="490.95" arrivalSpeed="12.75" duration="75.00" routeLength="984.31" waitSteps="0" timeLoss="3.65" rerouteNo="0" devices="tripinfo_wm2meLKW.0" vType="LKW" speedFactor="1.00" vaporized=""/>
    <tripinfo id="em2msLKW.0" depart="0.00" departLane="em_1" departPos="15.10" departSpeed="13.90" departDelay="0.00" arrival="76.00" arrivalLane="ms_0" arrivalPos="487.65" arrivalSpeed="13.84" duration="76.00" routeLength="982.88" waitSteps="0" timeLoss="5.18" rerouteNo="0" devices="tripinfo_em2msLKW.0" vType="LKW" speedFactor="1.00" vaporized=""/>
    <tripinfo id="wm2mnLKW.0" depart="0.00" departLane="wm_2" departPos="15.10" departSpeed="13.90" departDelay="0.00" arrival="77.00" arrivalLane="mn_0" arrivalPos="490.95" arrivalSpeed="12.70" duration="77.00" routeLength="983.45" waitSteps="0" timeLoss="6.01" rerouteNo="0" devices="tripinfo_wm2mnLKW.0" vType="LKW" speedFactor="1.00" vaporized=""/>
    <tripinfo id="wm2mePKW.0" depart="1.00" departLane="wm_1" departPos="5.10" departSpeed="10.81" departDelay="1.00" arrival="79.00" arrivalLane="me_0" arrivalPos="490.95" arrivalSpeed="13.37" duration="78.00" routeLength="994.31" waitSteps="0" timeLoss="6.28" rerouteNo="0" devices="tripinfo_wm2mePKW.0" vType="PKW" speedFactor="1.00" vaporized=""/>
    <tripinfo id="wm2msPKW.0" depart="1.00" departLane="wm_0" departPos="5.10" departSpeed="11.79" departDelay="1.00" arrival="80.00" arrivalLane="ms_0" arrivalPos="487.65" arrivalSpeed="13.88" duration="79.00" routeLength="982.35" waitSteps="1" timeLoss="8.22" rerouteNo="0" devices="tripinfo_wm2msPKW.0" vType="PKW" speedFactor="1.00" vaporized=""/>
    <tripinfo id="em2msPKW.0" depart="1.00" departLane="em_1" departPos="5.10" departSpeed="11.44" departDelay="1.00" arrival="83.00" arrivalLane="ms_0" arrivalPos="487.65" arrivalSpeed="12.95" duration="82.00" routeLength="992.88" waitSteps="0" timeLoss="9.99" rerouteNo="0" devices="tripinfo_em2msPKW.0" vType="PKW" speedFactor="1.00" vaporized=""/>
    <tripinfo id="sm2mwPKW.0" depart="1.00" departLane="sm_1" departPos="5.10" departSpeed="11.09" departDelay="1.00" arrival="86.00" arrivalLane="mw_0" arrivalPos="490.95" arrivalSpeed="13.00" duration="85.00" routeLength="992.88" waitSteps="3" timeLoss="13.27" rerouteNo="0" devices="tripinfo_sm2mwPKW.0" vType="PKW" speedFactor="1.00" vaporized=""/>
    <tripinfo id="sm2meLKW.0" depart="0.00" departLane="sm_0" departPos="15.10" departSpeed="13.90" departDelay="0.00" arrival="91.00" arrivalLane="me_0" arrivalPos="490.95" arrivalSpeed="13.46" duration="91.00" routeLength="975.38" waitSteps="11" timeLoss="19.89" rerouteNo="0" devices="tripinfo_sm2meLKW.0" vType="LKW" speedFactor="1.00" vaporized=""/>
    <tripinfo id="sm2mePKW.0" depart="1.00" departLane="sm_0" departPos="5.10" departSpeed="10.97" departDelay="1.00" arrival="93.00" arrivalLane="me_0" arrivalPos="490.95" arrivalSpeed="13.39" duration="92.00" routeLength="985.38" waitSteps="10" timeLoss="20.79" rerouteNo="0" devices="tripinfo_sm2mePKW.0" vType="PKW" speedFactor="1.00" vaporized=""/>
    <tripinfo id="sm2mwPKW.1" depart="19.00" departLane="sm_1" departPos="5.10" departSpeed="13.90" departDelay="-0.78" arrival="94.00" arrivalLane="mw_0" arrivalPos="490.95" arrivalSpeed="13.41" duration="75.00" routeLength="992.88" waitSteps="0" timeLoss="3.32" rerouteNo="0" devices="tripinfo_sm2mwPKW.1" vType="PKW" speedFactor="1.00" vaporized=""/>
    <tripinfo id="sm2mnLKW.0" depart="3.00" departLane="sm_0" departPos="15.10" departSpeed="8.87" departDelay="3.00" arrival="95.00" arrivalLane="mn_0" arrivalPos="490.95" arrivalSpeed="13.36" duration="92.00" routeLength="984.23" waitSteps="9" timeLoss="20.77" rerouteNo="0" devices="tripinfo_sm2mnLKW.0" vType="LKW" speedFactor="1.00" vaporized=""/>
    <tripinfo id="sm2mnPKW.0" depart="4.00" departLane="sm_0" departPos="5.10" departSpeed="5.22" departDelay="4.00" arrival="98.00" arrivalLane="mn_0" arrivalPos="490.95" arrivalSpeed="13.81" duration="94.00" routeLength="994.23" waitSteps="9" timeLoss="21.72" rerouteNo="0" devices="tripinfo_sm2mnPKW.0" vType="PKW" speedFactor="1.00" vaporized=""/>
    <tripinfo id="sm2mnPKW.1" depart="25.00" departLane="sm_0" departPos="5.10" departSpeed="13.90" departDelay="-0.35" arrival="101.00" arrivalLane="mn_0" arrivalPos="490.95" arrivalSpeed="13.56" duration="76.00" routeLength="994.23" waitSteps="0" timeLoss="3.74" rerouteNo="0" devices="tripinfo_sm2mnPKW.1" vType="PKW" speedFactor="1.00" vaporized=""/>
    <tripinfo id="nm2meLKW.0" depart="0.00" departLane="nm_1" departPos="15.10" departSpeed="13.90" departDelay="0.00" arrival="101.00" arrivalLane="me_0" arrivalPos="490.95" arrivalSpeed="13.43" duration="101.00" routeLength="983.44" waitSteps="21" timeLoss="30.17" rerouteNo="0" devices="tripinfo_nm2meLKW.0" vType="LKW" speedFactor="1.00" vaporized=""/>
    <tripinfo id="nm2msLKW.0" depart="0.00" departLane="nm_0" departPos="15.10" departSpeed="13.90" departDelay="0.00" arrival="102.00" arrivalLane="ms_0" arrivalPos="487.65" arrivalSpeed="12.63" duration="102.00" routeLength="984.23" waitSteps="21" timeLoss="30.69" rerouteNo="0" devices="tripinfo_nm2msLKW.0" vType="LKW" speedFactor="1.00" vaporized=""/>
    <tripinfo id="nm2msPKW.0" depart="1.00" departLane="nm_0" departPos="5.10" departSpeed="10.77" departDelay="1.00" arrival="104.00" arrivalLane="ms_0" arrivalPos="487.65" arrivalSpeed="13.38" duration="103.00" routeLength="994.23" waitSteps="21" timeLoss="31.38" rerouteNo="0" devices="tripinfo_nm2msPKW.0" vType="PKW" speedFactor="1.00" vaporized=""/>
    <tripinfo id="nm2mePKW.0" depart="1.00" departLane="nm_1" departPos="5.10" departSpeed="11.79" departDelay="1.00" arrival="104.00" arrivalLane="me_0" arrivalPos="490.95" arrivalSpeed="13.01" duration="103.00" routeLength="993.44" waitSteps="20" timeLoss="31.33" rerouteNo="0" devices="tripinfo_nm2mePKW.0" vType="PKW" speedFactor="1.00" vaporized=""/>
    <tripinfo id="nm2mwLKW.0" depart="3.00" departLane="nm_0" departPos="15.10" departSpeed="9.68" departDelay="3.00" arrival="106.00" arrivalLane="mw_0" arrivalPos="490.95" arrivalSpeed="12.67" duration="103.00" routeLength="975.65" waitSteps="20" timeLoss="32.09" rerouteNo="0" devices="tripinfo_nm2mwLKW.0" vType="LKW" speedFactor="1.00" vaporized=""/>
    <tripinfo id="nm2mwPKW.0" depart="4.00" departLane="nm_0" departPos="5.10" departSpeed="6.41" departDelay="4.00" arrival="108.00" arrivalLane="mw_0" arrivalPos="490.95" arrivalSpeed="13.57" duration="104.00" routeLength="985.65" waitSteps="19" timeLoss="32.97" rerouteNo="0" devices="tripinfo_nm2mwPKW.0" vType="PKW" speedFactor="1.00" vaporized=""/>
    <tripinfo id="nm2msPKW.1" depart="24.00" departLane="nm_0" departPos="5.10" departSpeed="13.90" departDelay="-0.32" arrival="111.00" arrivalLane="ms_0" arrivalPos="487.65" arrivalSpeed="13.58" duration="87.00" routeLength="994.23" waitSteps="5" timeLoss="15.01" rerouteNo="0" devices="tripinfo_nm2msPKW.1" vType="PKW" speedFactor="1.00" vaporized=""/>
    <tripinfo id="sm2mwPKW.2" depart="39.00" departLane="sm_1" departPos="5.10" departSpeed="13.90" departDelay="-0.56" arrival="114.00" arrivalLane="mw_0" arrivalPos="490.95" arrivalSpeed="13.77" duration="75.00" routeLength="992.88" waitSteps="0" timeLoss="3.42" rerouteNo="0" devices="tripinfo_sm2mwPKW.2" vType="PKW" speedFactor="1.00" vaporized=""/>
    <tripinfo id="wm2msPKW.1" depart="19.00" departLane="wm_0" departPos="5.10" departSpeed="13.90" departDelay="-0.57" arrival="125.00" arrivalLane="ms_0" arrivalPos="487.65" arrivalSpeed="13.73" duration="106.00" routeLength="982.35" waitSteps="25" timeLoss="34.93" rerouteNo="0" devices="tripinfo_wm2msPKW.1" vType="PKW" speedFactor="1.00" vaporized=""/>
    <tripinfo id="em2mnPKW.0" depart="1.00" departLane="em_0" departPos="5.10" departSpeed="11.02" departDelay="1.00" arrival="125.00" arrivalLane="mn_0" arrivalPos="490.95" arrivalSpeed="13.50" duration="124.00" routeLength="985.65" waitSteps="43" timeLoss="52.15" rerouteNo="0" devices="tripinfo_em2mnPKW.0" vType="PKW" speedFactor="1.00" vaporized=""/>
    <tripinfo id="wm2mePKW.1" depart="6.00" departLane="wm_1" departPos="5.10" departSpeed="13.90" departDelay="-0.10" arrival="125.00" arrivalLane="me_0" arrivalPos="490.95" arrivalSpeed="12.63" duration="119.00" routeLength="994.31" waitSteps="38" timeLoss="47.42" rerouteNo="0" devices="tripinfo_wm2mePKW.1" vType="PKW" speedFactor="1.00" vaporized=""/>
    <tripinfo id="wm2mnPKW.0" depart="1.00" departLane="wm_2" departPos="5.10" departSpeed="10.57" departDelay="1.00" arrival="126.00" arrivalLane="mn_0" arrivalPos="490.95" arrivalSpeed="12.88" duration="125.00" routeLength="993.45" waitSteps="41" timeLoss="53.41" rerouteNo="0" devices="tripinfo_wm2mnPKW.0" vType="PKW" speedFactor="1.00" vaporized=""/>
    <tripinfo id="wm2msPKW.2" depart="39.00" departLane="wm_0" departPos="5.10" departSpeed="13.90" departDelay="-0.13" arrival="127.00" arrivalLane="ms_0" arrivalPos="487.65" arrivalSpeed="12.67" duration="88.00" routeLength="982.35" waitSteps="7" timeLoss="16.75" rerouteNo="0" devices="tripinfo_wm2msPKW.2" vType="PKW" speedFactor="1.00" vaporized=""/>
    <tripinfo id="wm2mePKW.2" depart="12.00" departLane="wm_1" departPos="5.10" departSpeed="13.90" departDelay="-0.20" arrival="128.00" arrivalLane="me_0" arrivalPos="490.95" arrivalSpeed="13.59" duration="116.00" routeLength="994.31" waitSteps="34" timeLoss="43.97" rerouteNo="0" devices="tripinfo_wm2mePKW.2" vType="PKW" speedFactor="1.00" vaporized=""/>
    <tripinfo id="em2mwLKW.0" depart="3.00" departLane="em_0" departPos="15.10" departSpeed="9.67" departDelay="3.00" arrival="129.00" arrivalLane="mw_0" arrivalPos="490.95" arrivalSpeed="12.71" duration="126.00" routeLength="984.31" waitSteps="42" timeLoss="54.87" rerouteNo="0" devices="tripinfo_em2mwLKW.0" vType="LKW" speedFactor="1.00" vaporized=""/>
    <tripinfo id="wm2mePKW.3" depart="18.00" departLane="wm_1" departPos="5.10" departSpeed="13.90" departDelay="-0.30" arrival="130.00" arrivalLane="me_0" arrivalPos="490.95" arrivalSpeed="13.44" duration="112.00" routeLength="994.31" waitSteps="30" timeLoss="39.67" rerouteNo="0" devices="tripinfo_wm2mePKW.3" vType="PKW" speedFactor="1.00" vaporized=""/>
    <tripinfo id="wm2mePKW.4" depart="24.00" departLane="wm_1" departPos="5.10" departSpeed="13.90" departDelay="-0.40" arrival="131.00" arrivalLane="me_0" arrivalPos="490.95" arrivalSpeed="12.64" duration="107.00" routeLength="994.31" waitSteps="26" timeLoss="35.35" rerouteNo="0" devices="tripinfo_wm2mePKW.4" vType="PKW" speedFactor="1.00" vaporized=""/>
    <tripinfo id="em2mwPKW.0" depart="4.00" departLane="em_0" departPos="5.10" departSpeed="5.71" departDelay="4.00" arrival="132.00" arrivalLane="mw_0" arrivalPos="490.95" arrivalSpeed="12.83" duration="128.00" routeLength="994.31" waitSteps="40" timeLoss="55.83" rerouteNo="0" devices="tripinfo_em2mwPKW.0" vType="PKW" speedFactor="1.00" vaporized=""/>
    <tripinfo id="wm2msPKW.3" depart="58.00" departLane="wm_0" departPos="5.10" departSpeed="13.90" departDelay="-0.70" arrival="133.00" arrivalLane="ms_0" arrivalPos="487.65" arrivalSpeed="13.66" duration="75.00" routeLength="982.35" waitSteps="0" timeLoss="3.47" rerouteNo="0" devices="tripinfo_wm2msPKW.3" vType="PKW" speedFactor="1.00" vaporized=""/>
    <tripinfo id="wm2mePKW.5" depart="30.00" departLane="wm_1" departPos="5.10" departSpeed="13.90" departDelay="-0.50" arrival="133.00" arrivalLane="me_0" arrivalPos="490.95" arrivalSpeed="13.04" duration="103.00" routeLength="994.31" waitSteps="20" timeLoss="31.14" rerouteNo="0" devices="tripinfo_wm2mePKW.5" vType="PKW" speedFactor="1.00" vaporized=""/>
    <tripinfo id="em2mwPKW.1" depart="7.00" departLane="em_0" departPos="5.10" departSpeed="10.95" departDelay="0.46" arrival="134.00" arrivalLane="mw_0" arrivalPos="490.95" arrivalSpeed="12.91" duration="127.00" routeLength="994.31" waitSteps="39" timeLoss="54.56" rerouteNo="0" devices="tripinfo_em2mwPKW.1" vType="PKW" speedFactor="1.00" vaporized=""/>
    <tripinfo id="em2mwPKW.2" depart="13.00" departLane="em_0" departPos="5.10" departSpeed="13.90" departDelay="-0.09" arrival="135.00" arrivalLane="mw_0" arrivalPos="490.95" arrivalSpeed="12.76" duration="122.00" routeLength="994.31" waitSteps="37" timeLoss="50.29" rerouteNo="0" devices="tripinfo_em2mwPKW.2" vType="PKW" speedFactor="1.00" vaporized=""/>
    <tripinfo id="wm2mePKW.6" depart="36.00" departLane="wm_1" departPos="5.10" departSpeed="13.90" departDelay="-0.61" arrival="135.00" arrivalLane="me_0" arrivalPos="490.95" arrivalSpeed="13.78" duration="99.00" routeLength="994.31" waitSteps="17" timeLoss="27.00" rerouteNo="0" devices="tripinfo_wm2mePKW.6" vType="PKW" speedFactor="1.00" vaporized=""/>
    <tripinfo id="sm2mwPKW.3" depart="59.00" departLane="sm_1" departPos="5.10" departSpeed="13.90" departDelay="-0.34" arrival="138.00" arrivalLane="mw_0" arrivalPos="490.95" arrivalSpeed="13.23" duration="79.00" routeLength="992.88" waitSteps="0" timeLoss="7.16" rerouteNo="0" devices="tripinfo_sm2mwPKW.3" vType="PKW" speedFactor="1.00" vaporized=""/>
    <tripinfo id="wm2mePKW.7" depart="42.00" departLane="wm_1" departPos="5.10" departSpeed="13.90" departDelay="-0.71" arrival="138.00" arrivalLane="me_0" arrivalPos="490.95" arrivalSpeed="13.78" duration="96.00" routeLength="994.31" waitSteps="12" timeLoss="23.68" rerouteNo="0" devices="tripinfo_wm2mePKW.7" vType="PKW" speedFactor="1.00" vaporized=""/>
    <tripinfo id="wm2mePKW.8" depart="48.00" departLane="wm_1" departPos="5.10" departSpeed="13.90" departDelay="-0.81" arrival="139.00" arrivalLane="me_0" arrivalPos="490.95" arrivalSpeed="12.75" duration="91.00" routeLength="994.31" waitSteps="8" timeLoss="19.34" rerouteNo="0" devices="tripinfo_wm2mePKW.8" vType="PKW" speedFactor="1.00" vaporized=""/>
    <tripinfo id="em2mwPKW.3" depart="19.00" departLane="em_0" departPos="5.10" departSpeed="13.90" departDelay="-0.64" arrival="140.00" arrivalLane="mw_0" arrivalPos="490.95" arrivalSpeed="13.78" duration="121.00" routeLength="994.31" waitSteps="34" timeLoss="49.09" rerouteNo="0" devices="tripinfo_em2mwPKW.3" vType="PKW" speedFactor="1.00" vaporized=""/>
    <tripinfo id="wm2mnPKW.1" depart="61.00" departLane="wm_2" departPos="5.10" departSpeed="13.90" departDelay="-0.02" arrival="140.00" arrivalLane="mn_0" arrivalPos="490.95" arrivalSpeed="12.60" duration="79.00" routeLength="993.45" waitSteps="0" timeLoss="7.40" rerouteNo="0" devices="tripinfo_wm2mnPKW.1" vType="PKW" speedFactor="1.00" vaporized=""/>
    <tripinfo id="wm2meLKW.1" depart="50.00" departLane="wm_1" departPos="15.10" departSpeed="12.64" departDelay="0.00" arrival="141.00" arrivalLane="me_0" arrivalPos="490.95" arrivalSpeed="13.24" duration="91.00" routeLength="984.31" waitSteps="7" timeLoss="19.81" rerouteNo="0" devices="tripinfo_wm2meLKW.1" vType="LKW" speedFactor="1.00" vaporized=""/>
    <tripinfo id="em2mwPKW.4" depart="26.00" departLane="em_0" departPos="5.10" departSpeed="13.90" departDelay="-0.18" arrival="143.00" arrivalLane="mw_0" arrivalPos="490.95" arrivalSpeed="13.53" duration="117.00" routeLength="994.31" waitSteps="27" timeLoss="44.73" rerouteNo="0" devices="tripinfo_em2mwPKW.4" vType="PKW" speedFactor="1.00" vaporized=""/>
    <tripinfo id="em2mwPKW.5" depart="32.00" departLane="em_0" departPos="5.10" departSpeed="13.90" departDelay="-0.73" arrival="144.00" arrivalLane="mw_0" arrivalPos="490.95" arrivalSpeed="12.80" duration="112.00" routeLength="994.31" waitSteps="23" timeLoss="40.43" rerouteNo="0" devices="tripinfo_em2mwPKW.5" vType="PKW" speedFactor="1.00" vaporized=""/>
    <tripinfo id="wm2mePKW.9" depart="54.00" departLane="wm_1" departPos="5.10" departSpeed="13.90" departDelay="-0.91" arrival="144.00" arrivalLane="me_0" arrivalPos="490.95" arrivalSpeed="13.08" duration="90.00" routeLength="994.31" waitSteps="5" timeLoss="17.70" rerouteNo="0" devices="tripinfo_wm2mePKW.9" vType="PKW" speedFactor="1.00" vaporized=""/>
    <tripinfo id="wm2mePKW.10" depart="61.00" departLane="wm_1" departPos="5.10" departSpeed="13.90" departDelay="-0.01" arrival="145.00" arrivalLane="me_0" arrivalPos="490.95" arrivalSpeed="13.10" duration="84.00" routeLength="994.31" waitSteps="0" timeLoss="12.40" rerouteNo="0" devices="tripinfo_wm2mePKW.10" vType="PKW" speedFactor="1.00" vaporized=""/>
    <tripinfo id="em2mwPKW.6" depart="39.00" departLane="em_0" departPos="5.10" departSpeed="13.90" departDelay="-0.27" arrival="146.00" arrivalLane="mw_0" arrivalPos="490.95" arrivalSpeed="13.27" duration="107.00" routeLength="994.31" waitSteps="16" timeLoss="35.26" rerouteNo="0" devices="tripinfo_em2mwPKW.6" vType="PKW" speedFactor="1.00" vaporized=""/>
    <tripinfo id="wm2mePKW.11" depart="67.00" departLane="wm_1" departPos="5.10" departSpeed="13.90" departDelay="-0.11" arrival="147.00" arrivalLane="me_0" arrivalPos="490.95" arrivalSpeed="12.78" duration="80.00" routeLength="994.31" waitSteps="0" timeLoss="8.13" rerouteNo="0" devices="tripinfo_wm2mePKW.11" vType="PKW" speedFactor="1.00" vaporized=""/>
    <tripinfo id="em2mwPKW.7" depart="45.00" departLane="em_0" departPos="5.10" departSpeed="13.90" departDelay="-0.81" arrival="148.00" arrivalLane="mw_0" arrivalPos="490.95" arrivalSpeed="13.84" duration="103.00" routeLength="994.31" waitSteps="13" timeLoss="30.90" rerouteNo="0" devices="tripinfo_em2mwPKW.7" vType="PKW" speedFactor="1.00" vaporized=""/>
    <tripinfo id="wm2mePKW.12" depart="73.00" departLane="wm_1" departPos="5.10" departSpeed="13.90" departDelay="-0.21" arrival="149.00" arrivalLane="me_0" arrivalPos="490.95" arrivalSpeed="13.74" duration="76.00" routeLength="994.31" waitSteps="0" timeLoss="3.71" rerouteNo="0" devices="tripinfo_wm2mePKW.12" vType="PKW" speedFactor="1.00" vaporized=""/>
    <tripinfo id="em2msPKW.1" depart="75.00" departLane="em_1" departPos="5.10" departSpeed="13.90" departDelay="0.00" arrival="150.00" arrivalLane="ms_0" arrivalPos="487.65" arrivalSpeed="12.80" duration="75.00" routeLength="992.88" waitSteps="0" timeLoss="3.57" rerouteNo="0" devices="tripinfo_em2msPKW.1" vType="PKW" speedFactor="1.00" vaporized=""/>
    <tripinfo id="em2mwPKW.8" depart="52.00" departLane="em_0" departPos="5.10" departSpeed="13.90" departDelay="-0.36" arrival="150.00" arrivalLane="mw_0" arrivalPos="490.95" arrivalSpeed="13.39" duration="98.00" routeLength="994.31" waitSteps="8" timeLoss="25.68" rerouteNo="0" devices="tripinfo_em2mwPKW.8" vType="PKW" speedFactor="1.00" vaporized=""/>
    <tripinfo id="em2mwLKW.1" depart="54.00" departLane="em_0" departPos="15.10" departSpeed="12.61" departDelay="0.27" arrival="151.00" arrivalLane="mw_0" arrivalPos="490.95" arrivalSpeed="13.40" duration="97.00" routeLength="984.31" waitSteps="6" timeLoss="26.00" rerouteNo="0" devices="tripinfo_em2mwLKW.1" vType="LKW" speedFactor="1.00" vaporized=""/>
    <tripinfo id="wm2msPKW.4" depart="78.00" departLane="wm_0" departPos="5.10" departSpeed="13.90" departDelay="-0.26" arrival="153.00" arrivalLane="ms_0" arrivalPos="487.65" arrivalSpeed="13.22" duration="75.00" routeLength="982.35" waitSteps="0" timeLoss="3.49" rerouteNo="0" devices="tripinfo_wm2msPKW.4" vType="PKW" speedFactor="1.00" vaporized=""/>
    <tripinfo id="em2mwPKW.9" depart="58.00" departLane="em_0" departPos="5.10" departSpeed="13.90" departDelay="-0.91" arrival="154.00" arrivalLane="mw_0" arrivalPos="490.95" arrivalSpeed="13.29" duration="96.00" routeLength="994.31" waitSteps="5" timeLoss="23.99" rerouteNo="0" devices="tripinfo_em2mwPKW.9" vType="PKW" speedFactor="1.00" vaporized=""/>
    <tripinfo id="wm2mePKW.13" depart="79.00" departLane="wm_1" departPos="5.10" departSpeed="13.90" departDelay="-0.31" arrival="155.00" arrivalLane="me_0" arrivalPos="490.95" arrivalSpeed="12.92" duration="76.00" routeLength="994.31" waitSteps="0" timeLoss="4.01" rerouteNo="0" devices="tripinfo_wm2mePKW.13" vType="PKW" speedFactor="1.00" vaporized=""/>
    <tripinfo id="sm2mwPKW.4" depart="79.00" departLane="sm_1" departPos="5.10" departSpeed="13.90" departDelay="-0.12" arrival="156.00" arrivalLane="mw_0" arrivalPos="490.95" arrivalSpeed="13.54" duration="77.00" routeLength="992.88" waitSteps="0" timeLoss="4.79" rerouteNo="0" devices="tripinfo_sm2mwPKW.4" vType="PKW" speedFactor="1.00" vaporized=""/>
    <tripinfo id="em2mnPKW.1" depart="69.00" departLane="em_0" departPos="5.10" departSpeed="13.90" departDelay="-0.23" arrival="156.00" arrivalLane="mn_0" arrivalPos="490.95" arrivalSpeed="13.39" duration="87.00" routeLength="985.65" waitSteps="0" timeLoss="15.59" rerouteNo="0" devices="tripinfo_em2mnPKW.1" vType="PKW" speedFactor="1.00" vaporized=""/>
    <tripinfo id="em2mwPKW.10" depart="65.00" departLane="em_0" departPos="5.10" departSpeed="13.90" departDelay="-0.45" arrival="157.00" arrivalLane="mw_0" arrivalPos="490.95" arrivalSpeed="13.30" duration="92.00" routeLength="994.31" waitSteps="0" timeLoss="20.41" rerouteNo="0" devices="tripinfo_em2mwPKW.10" vType="PKW" speedFactor="1.00" vaporized=""/>
    <tripinfo id="em2mwPKW.11" depart="72.00" departLane="em_0" departPos="5.10" departSpeed="13.90" departDelay="0.00" arrival="159.00" arrivalLane="mw_0" arrivalPos="490.95" arrivalSpeed="13.78" duration="87.00" routeLength="994.31" waitSteps="0" timeLoss="15.13" rerouteNo="0" devices="tripinfo_em2mwPKW.11" vType="PKW" speedFactor="1.00" vaporized=""/>
    <tripinfo id="sm2mnPKW.2" depart="50.00" departLane="sm_0" departPos="5.10" departSpeed="13.90" departDelay="-0.70" arrival="172.00" arrivalLane="mn_0" arrivalPos="490.95" arrivalSpeed="13.06" duration="122.00" routeLength="994.23" waitSteps="40" timeLoss="49.70" rerouteNo="0" devices="tripinfo_sm2mnPKW.2" vType="PKW" speedFactor="1.00" vaporized=""/>
    <tripinfo id="sm2mePKW.1" depart="62.00" departLane="sm_0" departPos="5.10" departSpeed="13.90" departDelay="-0.07" arrival="173.00" arrivalLane="me_0" arrivalPos="490.95" arrivalSpeed="12.62" duration="111.00" routeLength="985.38" waitSteps="29" timeLoss="39.34" rerouteNo="0" devices="tripinfo_sm2mePKW.1" vType="PKW" speedFactor="1.00" vaporized=""/>
    <tripinfo id="sm2mwPKW.5" depart="98.00" departLane="sm_1" departPos="5.10" departSpeed="13.90" departDelay="-0.90" arrival="174.00" arrivalLane="mw_0" arrivalPos="490.95" arrivalSpeed="12.99" duration="76.00" routeLength="992.88" waitSteps="0" timeLoss="3.90" rerouteNo="0" devices="tripinfo_sm2mwPKW.5" vType="PKW" speedFactor="1.00" vaporized=""/>
    <tripinfo id="sm2mnPKW.3" depart="76.00" departLane="sm_0" departPos="5.10" departSpeed="13.90" departDelay="-0.06" arrival="175.00" arrivalLane="mn_0" arrivalPos="490.95" arrivalSpeed="13.17" duration="99.00" routeLength="994.23" waitSteps="17" timeLoss="26.65" rerouteNo="0" devices="tripinfo_sm2mnPKW.3" vType="PKW" speedFactor="1.00" vaporized=""/>
    <tripinfo id="sm2mnPKW.4" depart="101.00" departLane="sm_0" departPos="5.10" departSpeed="13.90" departDelay="-0.41" arrival="177.00" arrivalLane="mn_0" arrivalPos="490.95" arrivalSpeed="13.30" duration="76.00" routeLength="994.23" waitSteps="0" timeLoss="3.88" rerouteNo="0" devices="tripinfo_sm2mnPKW.4" vType="PKW" speedFactor="1.00" vaporized=""/>
    <tripinfo id="nm2msPKW.2" depart="48.00" departLane="nm_0" departPos="5.10" departSpeed="13.90" departDelay="-0.65" arrival="181.00" arrivalLane="ms_0" arrivalPos="487.65" arrivalSpeed="13.77" duration="133.00" routeLength="994.23" waitSteps="52" timeLoss="61.20" rerouteNo="0" devices="tripinfo_nm2msPKW.2" vType="PKW" speedFactor="1.00" vaporized=""/>
    <tripinfo id="nm2mePKW.1" depart="66.00" departLane="nm_1" departPos="5.10" departSpeed="13.90" departDelay="-0.67" arrival="181.00" arrivalLane="me_0" arrivalPos="490.95" arrivalSpeed="12.78" duration="115.00" routeLength="993.44" waitSteps="35" timeLoss="43.28" rerouteNo="0" devices="tripinfo_nm2mePKW.1" vType="PKW" speedFactor="1.00" vaporized=""/>
    <tripinfo id="nm2mwPKW.1" depart="60.00" departLane="nm_0" departPos="5.10" departSpeed="13.90" departDelay="0.00" arrival="182.00" arrivalLane="mw_0" arrivalPos="490.95" arrivalSpeed="12.62" duration="122.00" routeLength="985.65" waitSteps="43" timeLoss="51.09" rerouteNo="0" devices="tripinfo_nm2mwPKW.1" vType="PKW" speedFactor="1.00" vaporized=""/>
    <tripinfo id="nm2msPKW.3" depart="72.00" departLane="nm_0" departPos="5.10" departSpeed="13.90" departDelay="-0.97" arrival="185.00" arrivalLane="ms_0" arrivalPos="487.65" arrivalSpeed="13.66" duration="113.00" routeLength="994.23" waitSteps="32" timeLoss="40.63" rerouteNo="0" devices="tripinfo_nm2msPKW.3" vType="PKW" speedFactor="1.00" vaporized=""/>
    <tripinfo id="nm2msPKW.4" depart="97.00" departLane="nm_0" departPos="5.10" departSpeed="13.90" departDelay="-0.30" arrival="186.00" arrivalLane="ms_0" arrivalPos="487.65" arrivalSpeed="13.52" duration="89.00" routeLength="994.23" waitSteps="9" timeLoss="17.48" rerouteNo="0" devices="tripinfo_nm2msPKW.4" vType="PKW" speedFactor="1.00" vaporized=""/>
    <tripinfo id="sm2mwPKW.6" depart="118.00" departLane="sm_1" departPos="5.10" departSpeed="13.90" departDelay="-0.68" arrival="193.00" arrivalLane="mw_0" arrivalPos="490.95" arrivalSpeed="12.98" duration="75.00" routeLength="992.88" waitSteps="0" timeLoss="3.31" rerouteNo="0" devices="tripinfo_sm2mwPKW.6" vType="PKW" speedFactor="1.00" vaporized=""/>
    <tripinfo id="em2mwPKW.12" depart="78.00" departLane="em_0" departPos="5.10" departSpeed="13.90" departDelay="-0.54" arrival="204.00" arrivalLane="mw_0" arrivalPos="490.95" arrivalSpeed="13.52" duration="126.00" routeLength="994.31" waitSteps="38" timeLoss="54.41" rerouteNo="0" devices="tripinfo_em2mwPKW.12" vType="PKW" speedFactor="1.00" vaporized=""/>
    <tripinfo id="wm2msPKW.5" depart="97.00" departLane="wm_0" departPos="5.10" departSpeed="13.90" departDelay="-0.83" arrival="205.00" arrivalLane="ms_0" arrivalPos="487.65" arrivalSpeed="13.13" duration="108.00" routeLength="982.35" waitSteps="27" timeLoss="36.86" rerouteNo="0" devices="tripinfo_wm2msPKW.5" vType="PKW" speedFactor="1.00" vaporized=""/>
    <tripinfo id="wm2mePKW.14" depart="85.00" departLane="wm_1" departPos="5.10" departSpeed="13.90" departDelay="-0.41" arrival="206.00" arrivalLane="me_0" arrivalPos="490.95" arrivalSpeed="13.23" duration="121.00" routeLength="994.31" waitSteps="40" timeLoss="48.89" rerouteNo="0" devices="tripinfo_wm2mePKW.14" vType="PKW" speedFactor="1.00" vaporized=""/>
    <tripinfo id="wm2msPKW.6" depart="117.00" departLane="wm_0" departPos="5.10" departSpeed="13.90" departDelay="-0.39" arrival="207.00" arrivalLane="ms_0" arrivalPos="487.65" arrivalSpeed="13.86" duration="90.00" routeLength="982.35" waitSteps="9" timeLoss="18.80" rerouteNo="0" devices="tripinfo_wm2msPKW.6" vType="PKW" speedFactor="1.00" vaporized=""/>
    <tripinfo id="wm2mnPKW.2" depart="122.00" departLane="wm_2" departPos="5.10" departSpeed="13.90" departDelay="-0.03" arrival="207.00" arrivalLane="mn_0" arrivalPos="490.95" arrivalSpeed="12.71" duration="85.00" routeLength="993.45" waitSteps="3" timeLoss="12.69" rerouteNo="0" devices="tripinfo_wm2mnPKW.2" vType="PKW" speedFactor="1.00" vaporized=""/>
    <tripinfo id="wm2mePKW.15" depart="91.00" departLane="wm_1" departPos="5.10" departSpeed="13.90" departDelay="-0.52" arrival="208.00" arrivalLane="me_0" arrivalPos="490.95" arrivalSpeed="13.63" duration="117.00" routeLength="994.31" waitSteps="36" timeLoss="45.09" rerouteNo="0" devices="tripinfo_wm2mePKW.15" vType="PKW" speedFactor="1.00" vaporized=""/>
    <tripinfo id="wm2msPKW.7" depart="136.00" departLane="wm_0" departPos="5.10" departSpeed="13.90" departDelay="-0.96" arrival="210.00" arrivalLane="ms_0" arrivalPos="487.65" arrivalSpeed="13.83" duration="74.00" routeLength="982.35" waitSteps="0" timeLoss="3.32" rerouteNo="0" devices="tripinfo_wm2msPKW.7" vType="PKW" speedFactor="1.00" vaporized=""/>